 # Cu4 Te4 Br4 O10
 
          22  atoms
           4  atom types
 
      0.00000000       7.98172100  xlo xhi
      0.00000000       7.98172100  ylo yhi
      0.00000000       6.42250000  zlo zhi
 
Masses
 
           1   63.54600000    # Cu
           2   127.60000000    # Te
           3   79.90400000    # Br
           4   15.99900000    # O 
 
Atoms # atomic
 
         1    1        5.78063373       4.26623786       0.98305996
         2    1        3.71548314       5.78063373       5.43944004
         3    1        4.26623786       2.20108727       5.43944004
         4    1        2.20108727       3.71548314       0.98305996
         5    2        5.07803475       1.44137111       2.34820729
         6    2        6.54034989       5.07803475       4.07429271
         7    2        1.44137111       2.90368625       4.07429271
         8    2        2.90368625       6.54034989       2.34820729
         9    3        7.30585281       6.10853081       1.19988356
        10    3        1.87319019       7.30585281       5.22261644
        11    3        6.10853081       0.67586819       5.22261644
        12    3        0.67586819       1.87319019       1.19988356
        13    4        4.55074630       2.64207736       0.91022239
        14    4        5.33964364       4.55074630       5.51227761
        15    4        2.64207736       3.43097470       5.51227761
        16    4        3.43097470       5.33964364       0.91022239
        17    4        3.70691078       1.92889462       3.59032522
        18    4        6.05282638       3.70691078       2.83217478
        19    4        1.92889462       4.27481022       2.83217478
        20    4        4.27481022       6.05282638       3.59032522
        21    4        3.99086050       0.00000000       1.54951162
        22    4        0.00000000       3.99086050       4.87298838
