 # Cr4 Cu2 O8
 
          14  atoms
           3  atom types
 
      0.00000000       5.88762694  xlo xhi
      0.00000000       5.87120725  ylo yhi
      0.00000000       4.31671135  zlo zhi
