 # La4 Cu2 O8
 
          14  atoms
           3  atom types
 
      0.00000000       7.11164397  xlo xhi
      0.00000000       4.98612563  ylo yhi
      0.00000000       5.40022300  zlo zhi
