 # La12 Cu6 O24
 
          42  atoms
           3  atom types
 
      0.00000000      19.94036899  xlo xhi
      0.00000000       5.33219801  ylo yhi
      0.00000000       5.43927500  zlo zhi
