 # La2 Cu1 O4
 
           7  atoms
           3  atom types
 
      0.00000000       7.14122249  xlo xhi
      0.00000000       4.99416941  ylo yhi
      0.00000000       2.69676667  zlo zhi
