 # La2 Cu1 O4
 
           7  atoms
           3  atom types
 
      0.00000000       7.11806109  xlo xhi
      0.00000000       3.67861848  ylo yhi
      0.00000000       3.66830508  zlo zhi
