 # K2 Cu2 F6
 
          10  atoms
           3  atom types
 
      0.00000000       6.32969551  xlo xhi
      0.00000000       6.11096348  ylo yhi
      0.00000000       5.02526082  zlo zhi
     -1.64959710      -2.34004921      -3.05548174  xy xz yz
 
Masses
 
           1   39.09830000    # K 
           2   63.54600000    # Cu
           3   18.99840320    # F 
 
Atoms # atomic
 
         1    1        0.00000000       0.00000000       0.00000000
         2    1        2.34004921       3.05548174       0.00000000
         3    2        1.99482315      -1.52774087       2.51263041
         4    2       -1.99482315       1.52774087       2.51263041
         5    3        3.16484776       0.00000000       2.51263041
         6    3       -1.99482081       1.52774393       4.38363049
         7    3        0.50939804      -0.39012391       2.51263041
         8    3       -0.82479855       3.05548174       2.51263041
         9    3        4.33487002       1.52773781       0.64163033
        10    3        1.83065117       3.44560565       2.51263041
