 # K1 Cu1 F3
 
           5  atoms
           3  atom types
 
      0.00000000       4.06858400  xlo xhi
      0.00000000       4.06858400  ylo yhi
      0.00000000       4.06858400  zlo zhi
 
Masses
 
           1   39.09830000    # K 
           2   63.54600000    # Cu
           3   18.99840320    # F 
 
Atoms # atomic
 
         1    1        2.03429200       2.03429200       2.03429200
         2    2        0.00000000       0.00000000       0.00000000
         3    3        2.03429200       0.00000000       0.00000000
         4    3        0.00000000       0.00000000       2.03429200
         5    3        0.00000000       2.03429200       0.00000000
