 # Ba1 Co2 As2 O8
 
          13  atoms
           4  atom types
 
      0.00000000       8.54271260  xlo xhi
      0.00000000       4.89615081  ylo yhi
      0.00000000       4.22655722  zlo zhi
