 # Ba6 Mn4 O16
 
          26  atoms
           3  atom types
 
      0.00000000       5.80882684  xlo xhi
      0.00000000      10.06118425  ylo yhi
      0.00000000       7.25050410  zlo zhi
      0.00000048       2.90441334      -1.67686337  xy xz yz
 
Masses
 
           1   137.32700000    # Ba
           2   54.93804500    # Mn
           3   15.99900000    # O 
 
Atoms # atomic
 
         1    1        2.90441366       5.03059212       0.00000000
         2    1        0.00000000       0.00000000       0.00000000
         3    1        2.90441382       8.38432382       2.73670277
         4    1        5.80882700       3.35373169       2.73670277
         5    1        2.90441366       5.03058919       4.51380133
         6    1        5.80882684      -0.00000293       4.51380133
         7    2        5.80882716       6.70745669       5.64361838
         8    2        2.90441350       1.67686419       1.60688572
         9    2        2.90441350       1.67686457       5.64361838
        10    2        5.80882716       6.70745632       1.60688572
        11    3        2.90441382       8.38432022       0.09329949
        12    3        5.80882700       3.35372809       0.09329949
        13    3        2.90441366       5.03059279       7.15720461
        14    3        5.80882684       0.00000067       7.15720461
        15    3        1.40439163       5.89663056       2.19702600
        16    3        4.30880481       0.86603844       2.19702600
        17    3        4.40443577       5.89663056       2.19702600
        18    3        1.50002211       0.86603844       2.19702600
        19    3        5.80882433       8.32911302       2.19702600
        20    3        2.90441067       3.29852089       2.19702600
        21    3        5.80882998       5.08579999       5.05347810
        22    3        2.90441632       0.05520787       5.05347810
        23    3        7.21321855       7.51828245       5.05347810
        24    3        4.30880489       2.48769032       5.05347810
        25    3        4.40443584       7.51828245       5.05347810
        26    3        7.30884902       2.48769032       5.05347810
