 # Mn2 C2 O6
 
          10  atoms
           3  atom types
 
      0.00000000       4.94286777  xlo xhi
      0.00000000       4.29187043  ylo yhi
      0.00000000       5.28303800  zlo zhi
      2.45189519       1.66204671       0.96464067  xy xz yz
 
Masses
 
           1   54.93804500    # Mn
           2   12.01100000    # C 
           3   15.99900000    # O 
 
Atoms # atomic
 
         1    1        3.23481947       3.05986338       5.25100166
         2    1        3.43046541       0.80862290       2.60948266
         3    2        5.75883880       1.58911682       4.62007484
         4    2        3.40545506       3.72977738       1.97855584
         5    3        7.09891349       3.53946321       1.64443011
         6    3        4.04289250       2.86063229       2.68851691
         7    3        1.55676083       0.52339932       1.63188289
         8    3        7.42571915       4.89053538       4.28594911
         9    3        3.65831620       1.60909718       0.04699791
        10    3        2.05771537       1.57441824       4.27340189
