 # Mn4 C4 O12
 
          20  atoms
           3  atom types
 
      0.00000000       4.86729591  xlo xhi
      0.00000000       6.19978295  ylo yhi
      0.00000000       7.39648426  zlo zhi
      0.04992870       0.01544260       2.15046170  xy xz yz
 
Masses
 
           1   54.93804500    # Mn
           2   12.01100000    # C 
           3   15.99900000    # O 
 
Atoms # atomic
 
         1    1        1.54499060       2.63272140       3.72828665
         2    1        3.39531058       6.79278939       7.36645454
         3    1        1.53765263       1.55793772       0.02974866
         4    1        3.38742544       5.71716301       3.66832335
         5    2        3.96930481       2.08796174       1.85310037
         6    2        3.97704539       3.16316753       5.55132032
         7    2        0.95565094       5.18706686       1.84517134
         8    2        0.96334294       6.26228531       5.54341347
         9    3        0.40114722       2.08923172       1.87962417
        10    3        0.40915069       3.16444612       5.57787369
        11    3        4.52378885       5.18576968       1.81861796
        12    3        4.53122226       6.26091183       5.51687489
        13    3        3.29188624       1.53568950       2.80943620
        14    3        3.29955454       2.61099536       6.50791502
        15    3        1.63304518       5.73933910       0.88883551
        16    3        1.64081923       6.81446368       4.58681877
        17    3        1.59117974       4.64054187       2.83377064
        18    3        1.59902394       5.71593313       6.53230863
        19    3        3.33375651       2.63448268       0.86450848
        20    3        3.34137925       3.70955311       4.56245475
