 # Mn2 C2 O6
 
          10  atoms
           3  atom types
 
      0.00000000       5.76112664  xlo xhi
      0.00000000       5.74588807  ylo yhi
      0.00000000       5.67763400  zlo zhi
      0.41874864       0.66546312       0.61873038  xy xz yz
 
Masses
 
           1   54.93804500    # Mn
           2   12.01100000    # C 
           3   15.99900000    # O 
 
Atoms # atomic
 
         1    1        0.00000000       0.00000000       0.00000000
         2    1        0.33273156       0.30936519       2.83881700
         3    2        4.52463495       2.33072594       4.25822550
         4    2        2.32070345       4.03389252       1.41940850
         5    3        6.16165216       5.08485748       4.44082389
         6    3        3.74970166       3.16418998       4.25822550
         7    3        1.65880135       0.89822335       4.07562711
         8    3        0.68368624       1.27976098       1.23681011
         9    3        3.09563674       3.20042847       1.41940850
        10    3        5.18653705       5.46639510       1.60200689
