 # Gd2 V2 O8
 
          12  atoms
           3  atom types
 
      0.00000000       6.07601767  xlo xhi
      0.00000000       5.44856274  ylo yhi
      0.00000000       5.16027578  zlo zhi
     -2.68908065      -1.69346851      -2.72428137  xy xz yz
 
Masses
 
           1   157.25000000    # Gd
           2   50.94150000    # V 
           3   15.99900000    # O 
 
Atoms # atomic
 
         1    1       -1.34454033       2.72428137       2.58013789
         2    1        0.00000000       0.00000000       0.00000000
         3    2        1.69346851       2.72428137       0.00000000
         4    2        3.03800884       0.00000000       2.58013789
         5    3        0.30164860       2.27673915       0.94578051
         6    3        0.21465608      -1.44616025       4.21449528
         7    3       -0.21465000       1.44616025       4.21449528
         8    3        2.82335276       1.44616025       3.52591840
         9    3        4.42982874       0.44754222       1.63435739
        10    3        3.08528842       3.17182359       0.94578051
        11    3        1.64618893      -0.44754222       1.63435739
        12    3        3.25265884      -1.44616025       3.52591840
