 # Tl1 Cu1 Cl3
 
           5  atoms
           3  atom types
 
      0.00000000       4.86670500  xlo xhi
      0.00000000       4.86670500  ylo yhi
      0.00000000       4.86670500  zlo zhi
 
Masses
 
           1   204.38000000    # Tl
           2   63.54600000    # Cu
           3   35.45000000    # Cl
 
Atoms # atomic
 
         1    1        0.00000000       0.00000000       0.00000000
         2    2        2.43335250       2.43335250       2.43335250
         3    3        0.00000000       2.43335250       2.43335250
         4    3        2.43335250       0.00000000       2.43335250
         5    3        2.43335250       2.43335250       0.00000000
