 # Mn8 Si4 S16
 
          28  atoms
           3  atom types
 
      0.00000000       5.94295200  xlo xhi
      0.00000000       7.45596400  ylo yhi
      0.00000000      12.74022000  zlo zhi
 
Masses
 
           1   54.93804500    # Mn
           2   28.08500000    # Si
           3   32.06000000    # S 
 
Atoms # atomic
 
         1    1        0.04671160       5.59197300       9.31889762
         2    1        3.01818760       1.86399100       9.79143238
         3    1        5.89624040       1.86399100       3.42132238
         4    1        2.92476440       5.59197300       2.94878762
         5    1        2.97147600       3.72798200       6.37011000
         6    1        0.00000000       3.72798200       0.00000000
         7    1        2.97147600       0.00000000       6.37011000
         8    1        0.00000000       0.00000000       0.00000000
         9    2        2.42552671       1.86399100       1.14618663
        10    2        3.51742529       5.59197300      11.59403337
        11    2        0.54594929       1.86399100       7.51629663
        12    2        5.39700271       5.59197300       5.22392337
        13    3        4.43483284       3.90658216      10.61406839
        14    3        1.46335684       3.54938184       8.49626161
        15    3        1.50811916       0.17860016       2.12615161
        16    3        4.47959516       7.27736384       4.24395839
        17    3        1.46335684       0.17860016       8.49626161
        18    3        1.50811916       3.54938184       2.12615161
        19    3        4.43483284       7.27736384      10.61406839
        20    3        4.47959516       3.90658216       4.24395839
        21    3        1.57777650       5.59197300       5.19046755
        22    3        4.54925250       1.86399100       1.17964245
        23    3        4.36517550       1.86399100       7.54975245
        24    3        1.39369950       5.59197300      11.56057755
        25    3        4.53327784       5.59197300       7.20190622
        26    3        1.56180184       1.86399100      11.90842378
        27    3        1.40967416       1.86399100       5.53831378
        28    3        4.38115016       5.59197300       0.83179622
