 # Cd2 Te2
 
           4  atoms
           2  atom types
 
      0.00000000       4.60676777  xlo xhi
      0.00000000       4.54209805  ylo yhi
      0.00000000       5.77650600  zlo zhi
     -0.76919087       0.00000000       0.00000000  xy xz yz
 
Masses
 
           1   112.41100000    # Cd
           2   127.60000000    # Te
 
Atoms # atomic
 
         1    1        1.15648827       2.91510944       4.33237950
         2    1        2.68108863       1.62698861       1.44412650
         3    2        3.41052021       1.01069857       4.33237950
         4    2        0.42705670       3.53139948       1.44412650
