 # Cd2 Te2
 
           4  atoms
           2  atom types
 
      0.00000000       4.67575241  xlo xhi
      0.00000000       4.07527889  ylo yhi
      0.00000000       7.63690300  zlo zhi
     -2.29232689       0.00000000       0.00000000  xy xz yz
 
Masses
 
           1   112.41100000    # Cd
           2   127.60000000    # Te
 
Atoms # atomic
 
         1    1       -1.23647474       3.45776410       0.00132118
         2    1        3.61990026       0.61751478       3.81977268
         3    2        3.40623804       0.74247506       0.95329169
         4    2       -1.02281252       3.33280383       4.77174319
