 # Fe2 Cu2 O4
 
           8  atoms
           3  atom types
 
      0.00000000       3.06315384  xlo xhi
      0.00000000       6.01951757  ylo yhi
      0.00000000       5.08547844  zlo zhi
     -0.00000006      -0.00000018       1.57386462  xy xz yz
 
Masses
 
           1   55.84500000    # Fe
           2   63.54600000    # Cu
           3   15.99900000    # O 
 
Atoms # atomic
 
         1    1        1.53157689       3.00975878       0.00000000
         2    1       -0.00000012       3.79669110       2.54273922
         3    2        1.53157683       0.78693231       2.54273922
         4    2        0.00000000       0.00000000       0.00000000
         5    3        1.53157677       5.04125842       3.08869584
         6    3       -0.00000006       4.25457728       0.54583457
         7    3        1.53157683       2.55212377       1.99678260
         8    3       -0.00000018       3.33880491       4.53964386
