 # Sr4 Cu2 O6
 
          12  atoms
           3  atom types
 
      0.00000000       7.14028138  xlo xhi
      0.00000000       5.07468585  ylo yhi
      0.00000000       5.60280000  zlo zhi
