 # Y12 Al20 O48
 
          80  atoms
           3  atom types
 
      0.00000000      10.50330159  xlo xhi
      0.00000000       9.90260771  ylo yhi
      0.00000000       8.57590984  zlo zhi
     -3.50110053      -3.50110053      -4.95130385  xy xz yz
 
Masses
 
           1   88.90585000    # Y 
           2   26.98153860    # Al
           3   15.99900000    # O 
 
Atoms # atomic
 
         1    1        4.37637566       4.33239087       5.35994365
         2    1        6.12692593       4.95130385       2.14397746
         3    1        0.87527513       4.95130385       6.43193238
         4    1       -2.62582540       5.57021684       5.35994365
         5    1        2.62582540       1.85673895       7.50392111
         6    1        2.62582540      -1.85673894       7.50392111
         7    1       -0.87527513       0.61891298       3.21596619
         8    1       -2.62582540       0.00000000       6.43193238
         9    1        2.62582540       0.00000000       2.14397746
        10    1        6.12692593      -0.61891298       3.21596619
        11    1        0.87527513       3.09456491       1.07198873
        12    1        0.87527513       6.80804280       1.07198873
        13    2       -4.37637566       3.09456491       7.50392111
        14    2        7.87747619       1.85673895       1.07198873
        15    2        4.37637566       0.61891298       5.35994365
        16    2       -2.62582540       7.42695578       2.14397746
        17    2       -0.87527513      -3.09456491       7.50392111
        18    2       -0.87527513       2.47565193       6.43193238
        19    2        0.87527513      -0.61891298       5.35994365
        20    2        6.12692593      -2.47565193       6.43193238
        21    2        4.37637566       2.47565193       2.14397746
        22    2        4.37637566       8.04586876       1.07198873
        23    2       -0.87527513       4.33239087       3.21596619
        24    2        2.62582540       5.57021684       3.21596619
        25    2        3.50110053      -2.47565193       4.28795492
        26    2       -1.75055026       4.95130385       0.00000000
        27    2        1.75055027       2.47565193       4.28795492
        28    2       -1.75055026      -2.47565193       4.28795492
        29    2        0.00000000       0.00000000       0.00000000
        30    2       -3.50110053       2.47565193       4.28795492
        31    2        3.50110053       4.95130385       0.00000000
        32    2        5.25165079       0.00000000       0.00000000
        33    3        7.57176710       3.57318270       0.69146703
        34    3       -3.64375637       6.74280937       3.44020050
        35    3        3.35844469       2.08354827       5.30432030
        36    3        3.35844469      -3.87505379       8.40729887
        37    3        1.18098423      -0.09023256       7.03668839
        38    3       -1.27181678       4.15998152       6.86807743
        39    3       -3.97983401       3.55901702       5.82717637
        40    3        0.84490659      -3.56606767       7.55954446
        41    3        4.40674421       3.56606767       7.55954446
        42    3        4.40674421      -2.66323207       5.99578733
        43    3       -0.47873348       5.55226836       4.45656588
        44    3       -2.59545685       4.04846826       3.59648788
        45    3        4.68208476       3.66341526       0.84775442
        46    3        4.68208476       6.32942501       0.69146703
        47    3        3.02236705       5.74262619       6.86807743
        48    3        1.89320611       3.87505379       8.40729887
        49    3        5.39430664       3.15979834       3.44020050
        50    3        2.22928375       4.35033935       4.45656588
        51    3        4.34600712       5.85413945       3.59648788
        52    3       -0.90564368       1.38523618       1.01636538
        53    3        7.57176710       6.23919245       0.84775442
        54    3       -4.77291731       6.34359069       5.82717637
        55    3        4.07066657       0.09023256       7.03668839
        56    3        1.89320611      -2.08354827       5.30432030
        57    3       -4.07066657       1.37812116       7.88444280
        58    3        7.14485690      -1.79150552       5.13570933
        59    3        0.14265584       2.86775558       3.27158954
        60    3        0.14265584       8.82635764       0.16861096
        61    3        2.32011630       5.04153641       1.53922145
        62    3        4.77291731       0.79132233       1.70783241
        63    3        7.48093454       1.39228684       2.74873347
        64    3        2.65619394       8.51737152       1.01636538
        65    3        1.60789442       7.03485213       3.27158954
        66    3       -0.56956604       4.86107129       1.53922145
        67    3        8.27401784      -1.39228684       2.74873347
        68    3        2.65619394       2.28807178       2.58012251
        69    3       -4.07066657      -1.28788859       7.72815542
        70    3       -0.84490659      -0.90283560       4.97942195
        71    3        1.27181678       0.60096451       4.11934396
        72    3       -1.89320611       1.79150552       5.13570933
        73    3        1.60789442       1.07625006       0.16861096
        74    3        0.47873348      -0.79132233       1.70783241
        75    3       -1.18098423      -1.37812116       7.88444280
        76    3       -1.18098423       1.28788860       7.72815542
        77    3        6.09655738       0.90283560       4.97942195
        78    3        3.97983401      -0.60096450       4.11934396
        79    3       -0.90564368       7.61453593       2.58012251
        80    3        0.84490659       2.66323207       5.99578733
