 # Zn2 Cr4 O8
 
          14  atoms
           3  atom types
 
      0.00000000       5.99589900  xlo xhi
      0.00000000       5.19187053  ylo yhi
      0.00000000       4.89527426  zlo zhi
