 # Zn2 Cr4 O8
 
          14  atoms
           3  atom types
 
      0.00000000       6.05605360  xlo xhi
      0.00000000       5.21194345  ylo yhi
      0.00000000       4.90628400  zlo zhi
