 # Zn6 Cr12 O24
 
          42  atoms
           3  atom types
 
      0.00000000       5.99667621  xlo xhi
      0.00000000       5.19327381  ylo yhi
      0.00000000      14.73908500  zlo zhi
