 # Zn8 Cr16 O32
 
          56  atoms
           3  atom types
 
      0.00000000       6.00801532  xlo xhi
      0.00000000       5.21201705  ylo yhi
      0.00000000      19.76975200  zlo zhi
