 # Rb6 Co6 Br18
 
          30  atoms
           3  atom types
 
      0.00000000      13.07014869  xlo xhi
      0.00000000      11.31908040  ylo yhi
      0.00000000       6.20955700  zlo zhi
