 # Ca1 F2
 
           3  atoms
           2  atom types
 
      0.00000000       3.74957300  xlo xhi
      0.00000000       3.74957300  ylo yhi
      0.00000000       3.02289400  zlo zhi
 
Masses
 
           1   40.07800000    # Ca
           2   18.99840320    # F 
 
Atoms # atomic
 
         1    1        0.00000000       0.00000000       1.51144700
         2    2        0.00000000       1.87478650       0.00000000
         3    2        1.87478650       0.00000000       0.00000000
