 # Ba4 Cu6 O12
 
          22  atoms
           3  atom types
 
      0.00000000       9.30592371  xlo xhi
      0.00000000       6.13254328  ylo yhi
      0.00000000       6.11548265  zlo zhi
