 # Zn4 S4 O16
 
          24  atoms
           3  atom types
 
      0.00000000       4.84577800  xlo xhi
      0.00000000       6.83478800  ylo yhi
      0.00000000       8.69936100  zlo zhi
 
Masses
 
           1   65.38000000    # Zn
           2   32.06000000    # S 
           3   15.99900000    # O 
 
Atoms # atomic
 
         1    1        2.42288900       3.41739400       4.34968050
         2    1        0.00000000       3.41739400       0.00000000
         3    1        2.42288900       0.00000000       4.34968050
         4    1        0.00000000       0.00000000       0.00000000
         5    2        4.68886686       5.12609100       5.89548735
         6    2        2.26597786       1.70869700       7.15355415
         7    2        0.15691114       1.70869700       2.80387365
         8    2        2.57980014       5.12609100       1.54580685
         9    3        0.82238183       2.94537671       3.25862404
        10    3        3.24527083       3.88941129       1.09105646
        11    3        4.02339617       6.36277071       5.44073696
        12    3        1.60050717       0.47201729       7.60830454
        13    3        4.02339617       3.88941129       5.44073696
        14    3        1.60050717       2.94537671       7.60830454
        15    3        0.82238183       0.47201729       3.25862404
        16    3        3.24527083       6.36277071       1.09105646
        17    3        1.16184312       5.12609100       1.08052153
        18    3        3.58473212       1.70869700       3.26915897
        19    3        3.68393488       1.70869700       7.61883947
        20    3        1.26104588       5.12609100       5.43020203
        21    3        2.64666703       5.12609100       3.06343648
        22    3        0.22377803       1.70869700       1.28624402
        23    3        2.19911097       1.70869700       5.63592452
        24    3        4.62199997       5.12609100       7.41311698
