 # Cu16 Se8 O32
 
          56  atoms
           3  atom types
 
      0.00000000       9.03150400  xlo xhi
      0.00000000       9.03150400  ylo yhi
      0.00000000       9.03150400  zlo zhi
 
Masses
 
           1   63.54600000    # Cu
           2   78.96000000    # Se
           3   15.99900000    # O 
 
Atoms # atomic
 
         1    1        7.92994952       3.37406152       3.32559847
         2    1        7.88981352       1.19015353       1.10155448
         3    1        1.14169048       5.70590553       3.41419752
         4    1        1.19015353       1.10155448       7.88981352
         5    1        5.61730648       5.65744248       7.84135047
         6    1        5.70590553       3.41419752       1.14169048
         7    1        5.65744248       7.84135047       5.61730648
         8    1        7.84135047       5.61730648       5.65744248
         9    1        7.96419698       7.96419698       7.96419698
        10    1        3.37406152       3.32559847       7.92994952
        11    1        3.32559847       7.92994952       3.37406152
        12    1        3.44844498       5.58305902       1.06730702
        13    1        1.10155448       7.88981352       1.19015353
        14    1        1.06730702       3.44844498       5.58305902
        15    1        3.41419752       1.14169048       5.70590553
        16    1        5.58305902       1.06730702       3.44844498
        17    2        2.60723264       7.12298464       6.42427136
        18    2        4.88153694       8.66571906       0.36578494
        19    2        7.12298464       6.42427136       2.60723264
        20    2        1.90851936       1.90851936       1.90851936
        21    2        4.14996706       4.14996706       4.14996706
        22    2        0.36578494       4.88153694       8.66571906
        23    2        6.42427136       2.60723264       7.12298464
        24    2        8.66571906       0.36578494       4.88153694
        25    3        4.59374807       4.43775593       8.95350793
        26    3        6.21156138       4.24631514       6.59133612
        27    3        0.26943686       2.44016788       1.69580938
        28    3        2.16957499       2.34617701       6.68532699
        29    3        8.95350793       4.59374807       4.43775593
        30    3        2.44016788       1.69580938       0.26943686
        31    3        4.36087977       4.23108803       2.41030069
        32    3        0.28466397       6.62120331       8.87663177
        33    3        4.24631514       6.59133612       6.21156138
        34    3        4.43775593       8.95350793       4.59374807
        35    3        7.33569462       4.78518886       2.07558412
        36    3        4.23108803       2.41030069       4.36087977
        37    3        0.15487223       4.80041597       6.92605269
        38    3        2.81994262       8.76206714       6.95591988
        39    3        4.78518886       2.07558412       7.33569462
        40    3        6.95591988       2.81994262       8.76206714
        41    3        8.76206714       6.95591988       2.81994262
        42    3        8.87663177       0.28466397       6.62120331
        43    3        1.69580938       0.26943686       2.44016788
        44    3        0.07799607       0.07799607       0.07799607
        45    3        6.62120331       8.87663177       0.28466397
        46    3        4.67062423       8.74684003       2.10545131
        47    3        4.80041597       6.92605269       0.15487223
        48    3        6.59133612       6.21156138       4.24631514
        49    3        2.07558412       7.33569462       4.78518886
        50    3        6.68532699       2.16957499       2.34617701
        51    3        8.74684003       2.10545131       4.67062423
        52    3        6.92605269       0.15487223       4.80041597
        53    3        2.34617701       6.68532699       2.16957499
        54    3        6.86192901       6.86192901       6.86192901
        55    3        2.10545131       4.67062423       8.74684003
        56    3        2.41030069       4.36087977       4.23108803
