 # Er2 V2 O8
 
          12  atoms
           3  atom types
 
      0.00000000       6.64373210  xlo xhi
      0.00000000       6.02927398  ylo yhi
      0.00000000       3.57768596  zlo zhi
