 # Li8 Cu16 O16
 
          40  atoms
           3  atom types
 
      0.00000000       5.75816200  xlo xhi
      0.00000000       5.75816200  ylo yhi
      0.00000000      12.55863200  zlo zhi
 
Masses
 
           1   6.94000000    # Li
           2   63.54600000    # Cu
           3   15.99900000    # O 
 
Atoms # atomic
 
         1    1        4.35595166       2.87908100       5.37155296
         2    1        4.28129134       0.00000000       0.90776304
         3    1        0.00000000       4.28129134      11.65086896
         4    1        0.00000000       1.47687066      11.65086896
         5    1        1.47687066       0.00000000       0.90776304
         6    1        2.87908100       1.40221034       7.18707904
         7    1        2.87908100       4.35595166       7.18707904
         8    1        1.40221034       2.87908100       5.37155296
         9    2        4.30674817       2.87908100       9.33475581
        10    2        4.32990174       0.00000000       5.02966932
        11    2        2.87908100       1.45141383       3.22387619
        12    2        1.45082074       2.87908100       1.24964668
        13    2        0.00000000       1.42766717       3.05543981
        14    2        2.87908100       4.30734126      11.30898532
        15    2        2.87908100       4.30674817       3.22387619
        16    2        1.42826026       0.00000000       5.02966932
        17    2        4.33049483       0.00000000       9.50319219
        18    2        1.45141383       2.87908100       9.33475581
        19    2        4.30734126       2.87908100       1.24964668
        20    2        2.87908100       1.45082074      11.30898532
        21    2        1.42766717       0.00000000       9.50319219
        22    2        0.00000000       4.33049483       3.05543981
        23    2        0.00000000       1.42826026       7.52896268
        24    2        0.00000000       4.32990174       7.52896268
        25    3        0.00000000       4.37266185       4.91613929
        26    3        2.87908100       4.26458115       1.36317671
        27    3        1.49272864       0.00000000      11.38172492
        28    3        4.37266185       0.00000000       7.64249271
        29    3        0.00000000       1.49272864       1.17690708
        30    3        2.87908100       1.49358085       1.36317671
        31    3        1.49358085       2.87908100      11.19545529
        32    3        4.26458115       2.87908100      11.19545529
        33    3        0.00000000       4.26543336       1.17690708
        34    3        4.37180964       2.87908100       7.45622308
        35    3        1.38550015       0.00000000       7.64249271
        36    3        4.26543336       0.00000000      11.38172492
        37    3        2.87908100       1.38635236       5.10240892
        38    3        2.87908100       4.37180964       5.10240892
        39    3        1.38635236       2.87908100       7.45622308
        40    3        0.00000000       1.38550015       4.91613929
