 # Cr4 Cu2 O8
 
          14  atoms
           3  atom types
 
      0.00000000       5.91927775  xlo xhi
      0.00000000       5.91227320  ylo yhi
      0.00000000       4.28493494  zlo zhi
