 # La4 Cu4 O10
 
          18  atoms
           3  atom types
 
      0.00000000       8.94342395  xlo xhi
      0.00000000       6.97052291  ylo yhi
      0.00000000       3.86239232  zlo zhi
