 # Ba12 Co4 Sb8 O36
 
          60  atoms
           4  atom types
 
      0.00000000       5.94471319  xlo xhi
      0.00000000      15.58269892  ylo yhi
      0.00000000       9.70453183  zlo zhi
