 # Ca1 F2
 
           3  atoms
           2  atom types
 
      0.00000000       3.90043777  xlo xhi
      0.00000000       3.37787819  ylo yhi
      0.00000000       3.18469410  zlo zhi
