 # Si8
 
           8  atoms
           1  atom types
 
      0.00000000       5.04702600  xlo xhi
      0.00000000       5.40104300  ylo yhi
      0.00000000       6.17914900  zlo zhi
      0.58668400      -2.26985600      -2.07541100  xy xz yz
 
Masses
 
           1   28.08500000    # Si
 
Atoms # atomic
 
         1    1        4.13126412       5.04720625       0.72629099
         2    1        1.03741570       2.75332620       4.59424671
         3    1        3.36262115       1.65710413       1.90455584
         4    1       -1.23254376       2.39151317       5.52390586
         5    1        2.17735698       3.67376719       1.51815512
         6    1        2.57016171       1.02946974       4.03147454
         7    1       -0.17019820       3.40947477       2.41227798
         8    1        2.37209798      -1.29383372       3.86795572
