 # Si8
 
           8  atoms
           1  atom types
 
      0.00000000       5.77079208  xlo xhi
      0.00000000       5.42936910  ylo yhi
      0.00000000       4.66198800  zlo zhi
