 # Si1
 
           1  atoms
           1  atom types
 
      0.00000000       2.64952479  xlo xhi
      0.00000000       2.29455532  ylo yhi
      0.00000000       2.47690500  zlo zhi
