 # Si1
 
           1  atoms
           1  atom types
 
      0.00000000       2.69826787  xlo xhi
      0.00000000       2.26317083  ylo yhi
      0.00000000       2.37119066  zlo zhi
