 # Si34
 
          34  atoms
           1  atom types
 
      0.00000000      10.42209493  xlo xhi
      0.00000000       9.02579897  ylo yhi
      0.00000000       8.50960488  zlo zhi
