 # Ba2 Co4 As4 O16
 
          26  atoms
           4  atom types
 
      0.00000000       5.06269351  xlo xhi
      0.00000000       8.60416377  ylo yhi
      0.00000000       8.24735124  zlo zhi
     -0.00000030      -0.00000023      -2.97889108  xy xz yz
 
Masses
 
           1   137.32700000    # Ba
           2   58.93319500    # Co
           3   74.92160000    # As
           4   15.99900000    # O 
 
Atoms # atomic
 
         1    1        2.53134664      -1.48944554       4.12367562
         2    1        0.00000000       0.00000000       0.00000000
         3    2        2.53134653       3.24267341       2.72511454
         4    2       -0.00000019       3.87204482       1.39856108
         5    2       -0.00000034       1.75322787       6.84879016
         6    2        2.53134644       2.38259928       5.52223670
         7    3        2.53134645      -0.33647803       7.64789252
         8    3       -0.00000019       1.15296751       3.52421690
         9    3        2.53134652       5.96175072       0.59945873
        10    3       -0.00000035       4.47230518       4.72313435
        11    4        2.53134653      -1.93157907       7.07174906
        12    4       -0.00000011      -0.44213353       2.94807343
        13    4        2.53134644       7.55685176       1.17560219
        14    4       -0.00000043       6.06740622       5.29927781
        15    4        4.19411229       5.47740616       0.37615344
        16    4        1.66276542       3.98796062       4.49982906
        17    4        1.73935392       4.96503987       1.79468961
        18    4        4.27070056       3.47559433       5.91836523
        19    4        1.66057319       2.96452089       7.33332205
        20    4        4.19192006       4.45396642       3.20964643
        21    4        0.86858068       0.14786653       7.87119780
        22    4        3.39992756       1.63731207       3.74752218
        23    4        3.32333905       0.66023282       6.45266163
        24    4        0.79199241       2.14967836       2.32898601
        25    4        3.40211978       2.66075181       0.91402920
        26    4        0.87077291       1.17130627       5.03770482
