 # Mn10 Fe20 O40
 
          70  atoms
           3  atom types
 
      0.00000000       6.15049360  xlo xhi
      0.00000000       5.27469228  ylo yhi
      0.00000000      24.87994996  zlo zhi
