 # Mn2 Fe4 O8
 
          14  atoms
           3  atom types
 
      0.00000000       6.03855655  xlo xhi
      0.00000000       6.02595053  ylo yhi
      0.00000000       4.40529910  zlo zhi
