 # Ni4 Sb8 O24
 
          36  atoms
           3  atom types
 
      0.00000000       4.71843900  xlo xhi
      0.00000000      10.48815103  ylo yhi
      0.00000000       8.42861543  zlo zhi
      0.00009176       0.00005500       4.24598374  xy xz yz
 
Masses
 
           1   58.69340000    # Ni
           2   121.76000000    # Sb
           3   15.99900000    # O 
 
Atoms # atomic
 
         1    1        2.35907503       9.49034639       8.42822771
         2    1        4.71824473       2.12264544       4.21355757
         3    1        2.35997233       7.36639386       4.21392842
         4    1        4.71816062       0.00039510       0.00047200
         5    2        2.35939973       2.46415058       1.40040602
         6    2        2.35934702       4.58696916       5.61484859
         7    2        4.71835842       7.70812571       1.40045660
         8    2        4.71847085       9.83110060       5.61473059
         9    2        2.35918131      12.27020194       7.02814197
        10    2        2.35908303      10.14703053       2.81397755
        11    2        0.00027534       4.90297324       2.81386797
        12    2        0.00022263       7.02598209       7.02820940
        13    3        0.89869077       8.83308766       7.12428719
        14    3        0.89874348       6.71007282       2.90999633
        15    3        3.81979119       5.90102039       1.30442095
        16    3        3.81990362       8.02399553       5.51873709
        17    3        1.46063538       1.46608071       2.90991205
        18    3        1.46054492       3.58911155       7.12442205
        19    3        3.25790402      11.14520580       1.30455581
        20    3        3.25805420      13.26816493       5.51865281
        21    3        0.92975178       1.84763339       0.11063401
        22    3        0.92978399       3.97046717       4.32481529
        23    3        3.78877915       3.13388470       2.66369533
        24    3        3.78884440       5.25682939       6.87818005
        25    3        1.42949450       7.09181727       0.11051601
        26    3        1.42962109       9.21451173       4.32489958
        27    3        3.28899526      10.50106971       6.87802833
        28    3        3.28904325       8.37795822       2.66371219
        29    3        3.78874434      12.88656133       8.31818371
        30    3        3.78872156      10.76341788       4.10378328
        31    3        0.92970753      11.60028302       5.76481895
        32    3        0.92972721       9.47725021       1.55067981
        33    3        3.28906767       7.64262366       8.31808256
        34    3        3.28915813       5.51934712       4.10387599
        35    3        1.42965184       4.23334999       1.55052809
        36    3        1.42974540       6.35622649       5.76483581
