 # Zn2 Sb4 O12
 
          18  atoms
           3  atom types
 
      0.00000000       4.75115800  xlo xhi
      0.00000000       4.75115800  ylo yhi
      0.00000000       9.42056300  zlo zhi
 
Masses
 
           1   65.38000000    # Zn
           2   121.76000000    # Sb
           3   15.99900000    # O 
 
Atoms # atomic
 
         1    1        0.00000000       0.00000000       0.00000000
         2    1        2.37557900       2.37557900       4.71028150
         3    2        2.37557900       2.37557900       7.83962296
         4    2        0.00000000       0.00000000       3.12934146
         5    2        2.37557900       2.37557900       1.58094004
         6    2        0.00000000       0.00000000       6.29122154
         7    3        3.31905445       3.31905445       6.33921931
         8    3        1.43210355       1.43210355       6.33921931
         9    3        3.31905445       3.31905445       3.08134369
        10    3        0.94347545       3.80768255       1.62893781
        11    3        3.80768255       0.94347545       1.62893781
        12    3        3.80768255       0.94347545       7.79162519
        13    3        1.48064138       1.48064138       0.00000000
        14    3        0.89493762       3.85622038       4.71028150
        15    3        3.85622038       0.89493762       4.71028150
        16    3        3.27051662       3.27051662       0.00000000
        17    3        1.43210355       1.43210355       3.08134369
        18    3        0.94347545       3.80768255       7.79162519
