 # Ru2 Cl6
 
           8  atoms
           2  atom types
 
      0.00000000       6.56077987  xlo xhi
      0.00000000       5.68180211  ylo yhi
      0.00000000       5.70864300  zlo zhi
     -3.28038981       0.00000000       0.00000000  xy xz yz
 
Masses
 
           1   101.07000000    # Ru
           2   35.45000000    # Cl
 
Atoms # atomic
 
         1    1        0.00000000       0.00000000       2.85432150
         2    1        0.00000000       0.00000000       0.00000000
         3    2        4.66581670       0.00000000       4.28148225
         4    2        2.33290844       4.04071584       1.42716075
         5    2        1.89496317       0.00000000       1.42716075
         6    2        0.94748162       1.64108627       4.28148225
         7    2       -2.33290826       4.04071584       4.28148225
         8    2       -0.94748155       1.64108627       1.42716075
