 # C2
 
           2  atoms
           1  atom types
 
      0.00000000       1.63153115  xlo xhi
      0.00000000       1.63152131  ylo yhi
      0.00000000       9.87987700  zlo zhi
     -0.00566533       0.00000000       0.00000000  xy xz yz
 
Masses
 
           1   12.01100000    # C 
 
Atoms # atomic
 
         1    1        0.53851115       0.54038433       7.40990775
         2    1        1.08735467       1.09113698       2.46996925
