 # C80
 
          80  atoms
           1  atom types
 
      0.00000000       9.33519600  xlo xhi
      0.00000000      10.90004800  ylo yhi
      0.00000000      14.52495400  zlo zhi
 
Masses
 
           1   12.01100000    # C 
 
Atoms # atomic
 
         1    1        1.54140889       2.91009482      12.88183310
         2    1        7.79378711       8.36011882       8.90559790
         3    1        3.12618911       7.98995318       5.61935610
         4    1        6.20900689       2.53992918       1.64312090
         5    1        1.46229311       1.80669386      12.00600743
         6    1        7.87290289       7.25671786       9.78142357
         7    1        3.20530489       9.09335414       4.74353043
         8    1        6.12989111       3.64333014       2.51894657
         9    1        1.12859719       0.90170647       9.66506417
        10    1        8.20659881       6.35173047      12.12236683
        11    1        3.53900081       9.99834153       2.40258717
        12    1        5.79619519       4.54831753       4.85988983
        13    1        0.91205798       0.53279435       8.50452034
        14    1        8.42313802       5.98281835      13.28291066
        15    1        3.75554002      10.36725365       1.24204334
        16    1        5.57965598       4.91722965       6.02043366
        17    1        0.49096596       2.81113328       4.53120465
        18    1        8.84423004       8.26115728       2.73127235
        19    1        4.17663204       8.08891472      11.79368165
        20    1        5.15856396       2.63889072       9.99374935
        21    1        0.39191020       4.04362351       4.88298451
        22    1        8.94328580       9.49364751       2.37949249
        23    1        4.27568780       6.85642449      12.14546151
        24    1        5.05950820       1.40640049       9.64196949
        25    1        0.43889424       4.31407550       6.17786963
        26    1        8.89630176       9.76409950       1.08460737
        27    1        4.22870376       6.58597250      13.44034663
        28    1        5.10649224       1.13594850       8.34708437
        29    1        0.37871957       4.03491437       7.43912949
        30    1        8.95647643       9.48493837      14.34830151
        31    1        4.28887843       6.86513363       0.17665249
        32    1        5.04631757       1.41510963       7.08582451
        33    1        1.02848655       4.29934953      10.97684181
        34    1        8.30670945       9.74937353      10.81058919
        35    1        3.63911145       6.60069847       3.71436481
        36    1        5.69608455       1.15067447       3.54811219
        37    1        1.28269327       4.16832006      12.22039575
        38    1        8.05250273       9.61834406       9.56703525
        39    1        3.38490473       6.73172794       4.95791875
        40    1        5.95029127       1.28170394       2.30455825
        41    1        1.18751161       1.89913716      10.67242783
        42    1        8.14768439       7.34916116      11.11500317
        43    1        3.48008639       9.00091084       3.40995083
        44    1        5.85510961       3.55088684       3.85252617
        45    1        0.39250765       1.15918740       7.32062039
        46    1        8.94268835       6.60921140      14.46681061
        47    1        4.27509035       9.74086060       0.05814339
        48    1        5.06010565       4.29083660       7.20433361
        49    1        0.52117466       3.37503636       8.68352587
        50    1        8.81402134       8.82506036      13.10390513
        51    1        4.14642334       7.52501164       1.42104887
        52    1        5.18877266       2.07498764       5.84142813
        53    1        0.88872933       3.29220690      10.05893734
        54    1        8.44646667       8.74223090      11.72849366
        55    1        3.77886867       7.60784110       2.79646034
        56    1        5.55632733       2.15781710       4.46601666
        57    1        2.29419910       2.90849251       0.88072059
        58    1        7.04099690       8.35851651       6.38175641
        59    1        2.37339890       7.99155549       8.14319759
        60    1        6.96179710       2.54153149      13.64423341
        61    1        2.73260791       3.13560591       2.09064925
        62    1        6.60258809       8.58562991       5.17182775
        63    1        1.93499009       7.76444209       9.35312625
        64    1        7.40020591       2.31441809      12.43430475
        65    1        1.89745327       2.80957457      14.19317500
        66    1        7.43774273       8.25959857       7.59425600
        67    1        2.77014473       8.09047343       6.93069800
        68    1        6.56505127       2.64044943       0.33177900
        69    1        0.21798616       1.52452431       4.77968304
        70    1        9.11720984       6.97454831       2.48279396
        71    1        4.44961184       9.37552369      12.04216004
        72    1        4.88558416       3.92549969       9.74527096
        73    1        0.36545425       1.02020089       5.93415543
        74    1        8.96974175       6.47022489       1.32832157
        75    1        4.30214375       9.87984711      13.19663243
        76    1        5.03305225       4.42982311       8.59079857
        77    1        0.23513492       2.47892162       7.71591701
        78    1        9.10006108       7.92894562      14.07151399
        79    1        4.43246308       8.42112638       0.45344001
        80    1        4.90273292       2.97110238       6.80903699
