 # C80
 
          80  atoms
           1  atom types
 
      0.00000000       7.57115200  xlo xhi
      0.00000000       8.87832800  ylo yhi
      0.00000000      23.02273900  zlo zhi
     -2.37487700      -2.76780500      -4.08742400  xy xz yz
 
Masses
 
           1   12.01100000    # C 
 
Atoms # atomic
 
         1    1        0.89207355       4.36014687       0.11331792
         2    1       -0.62052035       0.19046675      22.97112202
         3    1        3.11506890       4.15819962       0.85128880
         4    1        3.57992674       4.25631317       2.01492709
         5    1        3.32473337       4.59492160       3.35340007
         6    1        4.07613847       4.98278587       4.46574371
         7    1        4.31897647       5.43995405       5.59114124
         8    1        3.90340608       6.07646651       6.73032938
         9    1        3.66342155       6.28156160       8.08791123
        10    1        2.57993985       6.34430289       7.15712492
        11    1        1.28733818       5.85501896       7.30884477
        12    1        0.62702709       5.53990886       6.10850823
        13    1        0.33522342       5.31101657       4.92737265
        14    1        0.61986683       4.97451118       3.57720412
        15    1        0.06620486       4.67737600       1.10193736
        16    1       -0.04820124       4.84209918       2.34286299
        17    1        1.95999825       4.76402968       3.47095418
        18    1        2.04358953       5.56698637       9.57451252
        19    1        3.23330140       5.89625565       9.34343328
        20    1        0.96536708       5.31488103       8.67139953
        21    1        3.48379529       8.13734686       1.53471880
        22    1        2.23183116       8.32266571       1.57026591
        23    1        3.87903217       0.01546828       2.53063645
        24    1        3.81685548       0.64946405       3.61463909
        25    1        4.67321359       1.01585859       4.61237553
        26    1        5.14659158       1.28667989       5.89324562
        27    1        4.98435506       1.50949229       7.26365113
        28    1        5.69717539       1.71843203       8.26357473
        29    1       -0.85826636       1.90182586       9.17875163
        30    1        0.29905277       1.04670481       9.01310302
        31    1        1.34860694       1.07287318       7.99727071
        32    1        1.27376715       0.83499174       6.64878284
        33    1        0.77740158       0.63547661       5.53381462
        34    1       -0.18394190       0.53955490       4.49940295
        35    1        4.61332159       8.42352009       2.17062988
        36    1       -0.07146593      -0.03328128       3.23358974
        37    1        6.08706091       0.95376715       4.90375132
        38    1       -0.01557251       3.13454928       9.17343338
        39    1       -0.03716996       4.40966996       8.90275504
        40    1        1.25181021       2.09154010       8.95225393
        41    1        4.39260383       2.52787796      12.77393651
        42    1        3.14200497       2.75645992      12.83179265
        43    1        2.45422902       3.07945925      13.91683132
        44    1        2.28696553       3.51256268      15.09191192
        45    1        2.84483117       3.76934081      16.35201549
        46    1        2.41452961       4.04955433      17.65809547
        47    1        2.53205433       4.18727787      18.87922155
        48    1       -4.33654858       3.99382228      20.05648931
        49    1       -3.64444841       4.36288621      21.24202223
        50    1       -2.99112220       3.63606522      20.20493993
        51    1       -1.63223669       3.85797824      19.80188084
        52    1       -1.32932811       3.48289436      18.47597828
        53    1       -1.40432495       3.30989537      17.25531266
        54    1       -2.04886931       3.30653696      15.99092685
        55    1       -2.08525232       2.75119486      13.48379662
        56    1       -1.72585439       2.97934877      14.66774097
        57    1       -3.37954575       3.59060866      16.14264670
        58    1        0.52337422      -3.72939175      21.63359298
        59    1       -0.68771696      -3.58188332      22.15540336
        60    1       -1.00694653       4.74460118      20.71698867
        61    1        1.33657252      -0.31822545      20.24133888
        62    1        2.47887062      -0.78808945      20.50860986
        63    1        3.43258160      -1.25672651      19.70760272
        64    1        3.88721774      -1.44383898      18.55047986
        65    1        3.41663021      -1.33835101      17.27260273
        66    1        3.25898493      -1.55207772      15.90007912
        67    1        3.53262896      -2.07884566      14.65102647
        68    1        3.38263390      -2.11338825      13.42476632
        69    1        2.66701115      -1.83033950      12.24268681
        70    1        1.31055474      -1.54652485      12.56993202
        71    1        0.34796904      -0.70841569      12.99062653
        72    1       -0.02924862      -0.24753878      14.24080730
        73    1        0.26977929      -0.21285566      15.43762137
        74    1        0.94528830      -0.29061737      16.67244597
        75    1        0.47674898       0.03957249      17.94686969
        76    1        0.61225761       0.05377996      19.18770323
        77    1        2.24464893      -0.86726683      16.59124477
        78    1        1.68300499      -0.71496063      10.88105295
        79    1        2.95495572      -1.17444290      10.98493155
        80    1        0.59009207      -0.48802108      11.58541063
