 # C140
 
         140  atoms
           1  atom types
 
      0.00000000      10.06696265  xlo xhi
      0.00000000       8.74232324  ylo yhi
      0.00000000      17.99996300  zlo zhi
     -4.99154499       0.00000000       0.00000000  xy xz yz
 
Masses
 
           1   12.01100000    # C 
 
Atoms # atomic
 
         1    1       -0.05085866       3.24649670       7.73494410
         2    1        2.06441200       5.47743269      14.71363776
         3    1       -2.13129122       4.20470779      12.29271473
         4    1        7.43815121       3.82467899       4.49999075
         5    1        2.23088671       7.17676548       7.73494410
         6    1       -2.45960712       6.46764941       2.05509178
         7    1       -0.94965361       2.45606829       5.71095626
         8    1        1.57848189       4.92804761       0.23713151
         9    1       -1.25840770       3.13699911       2.05606377
        10    1        7.53502478       2.27467383      11.05507328
        11    1       -0.04686842       6.70685686       0.54901687
        12    1        2.06441200       5.47743269      12.28630674
        13    1        5.12627632       5.49582653      16.73492560
        14    1        1.35994899       6.41087677       0.50270297
        15    1        6.33382536       5.60532413      15.94389923
        16    1       -2.20813016       4.16004326       2.05494778
        17    1        1.09804213       3.52742252      13.49997225
        18    1        3.97737553       5.21490072       4.49999075
        19    1       -0.77217098       5.45753516       0.54901687
        20    1        6.33382536       5.60532413      11.05604527
        21    1        1.35994899       6.41087677       8.49727853
        22    1        3.73309041       4.50866962       5.71365626
        23    1       -3.35602572       5.99317730      13.49997225
        24    1        4.62482190       6.60308548      12.28648674
        25    1        1.34232725       4.23365362      14.71363776
        26    1        2.74679621       4.24977446       1.09916774
        27    1       -0.54185136       7.79909650       7.71561214
        28    1        3.30291143       6.55219642       2.05060978
        29    1        2.55659028       6.03974766      13.49997225
        30    1        7.20670888       4.53761545       5.70724827
        31    1        5.61726902       0.94322674      16.71559364
        32    1        7.20670888       4.53761545       3.29273323
        33    1        5.84758864       3.28478808      17.45094613
        34    1        3.71546867       2.33144647       9.50268447
        35    1        3.30291143       6.55219642       6.94937172
        36    1       -0.54185136       7.79909650       1.28436936
        37    1        3.88244756       6.62485387      13.49997225
        38    1        7.53502478       2.27467383      15.94487122
        39    1        3.73309041       4.50866962       3.28632524
        40    1        1.59612453       3.56295132      11.04902529
        41    1       -0.77217098       5.45753516       8.45096463
        42    1        2.32862145       4.49254878      10.09914924
        43    1        3.34818555       0.46260878      15.94389923
        44    1       -2.95704025       6.71227710       4.49999075
        45    1       -2.20813016       4.16004326       6.94503372
        46    1        4.62482190       6.60308548      14.71345776
        47    1        3.71546867       2.33144647      17.49726003
        48    1        2.77270278       5.58958795      15.95091921
        49    1        6.02507127       6.28625495      12.28900674
        50    1        2.30271488       3.15273529       2.04904379
        51    1       -0.04686842       6.70685686       8.45096463
        52    1       -2.21984091       7.98209081       4.49999075
        53    1        3.49693577       3.81427563      17.76283149
        54    1        2.30271488       3.15273529       6.95093771
        55    1       -1.25840770       3.13699911       6.94391773
        56    1        6.67936791       0.33443758      14.70926376
        57    1        1.57848189       4.92804761       8.76284999
        58    1        3.49693577       3.81427563       9.23711301
        59    1       -0.94965361       2.45606829       3.28902524
        60    1        7.29525857       0.76023243      13.49997225
        61    1        5.12228608       2.03546638       9.54899837
        62    1       -2.45960712       6.46764941       6.94488972
        63    1        2.23088671       7.17676548       1.26503740
        64    1        2.60376267       0.39310731      12.28900674
        65    1        0.36721001       8.50833496      14.70722977
        66    1        6.67936791       0.33443758      12.29068074
        67    1       -0.05085866       3.24649670       1.26503740
        68    1        2.84453095       1.56555776      16.73492560
        69    1       -1.76075763       7.67140613       2.05509178
        70    1        3.47929313       5.17937192       6.95093771
        71    1        4.89300617       4.35973540      17.49726003
        72    1        3.01100566       3.26489055       3.28632524
        73    1        7.04153780       3.39650623      10.28435086
        74    1        6.86861062       0.05719228       4.49999075
        75    1        8.43144338       2.74914594       4.49999075
        76    1       -3.02142812       5.96630340       5.70928226
        77    1        2.47165499       8.34921593       3.28902524
        78    1        7.28354782       4.58227998      11.05492928
        79    1       -1.60395025       8.40788566       3.29069924
        80    1        0.36789807       8.59720942       2.05494778
        81    1        4.70820765       0.23398828       5.70724827
        82    1        1.02307442       2.62521476       6.94937172
        83    1        8.03245791       2.03004614      13.49997225
        84    1        1.77250623       2.19012682      15.94935322
        85    1        4.70751959       0.14511382      15.94501522
        86    1       -0.36667330       8.35582513      13.49997225
        87    1        4.89300617       4.35973540       9.50268447
        88    1        7.04153780       3.39650623      16.71559364
        89    1        1.34232725       4.23365362      12.28630674
        90    1       -1.96612014       5.34581701       7.71561214
        91    1        0.45059576       2.13923775       3.28650524
        92    1        2.84453095       1.56555776      10.26501890
        93    1        3.82808635       6.65641366       4.49999075
        94    1        1.72723211       8.27971446       2.05606377
        95    1        5.44209096       0.38649811       4.49999075
        96    1        2.60376267       0.39310731      14.71093776
        97    1        2.32862145       4.49254878      16.90079526
        98    1        0.18241149       4.38258784       0.50270297
        99    1       -1.96612014       5.34581701       1.28436936
       100    1        8.09684578       2.77601984      12.29068074
       101    1        5.12228608       2.03546638      17.45094613
       102    1        2.74679621       4.24977446       7.90081376
       103    1        4.05234324       6.11710848      11.05059128
       104    1        5.84758864       3.28478808       9.54899837
       105    1        1.59612453       3.56295132      15.95091921
       106    1        6.83617529       1.07091711      11.05507328
       107    1        5.61726902       0.94322674      10.28435086
       108    1        4.05234324       6.11710848      15.94935322
       109    1        0.18241149       4.38258784       8.49727853
       110    1        0.36721001       8.50833496      12.29271473
       111    1        1.63432999       1.45201247      14.71345776
       112    1       -2.36273355       4.91764425      13.49997225
       113    1        1.72723211       8.27971446       6.94391773
       114    1        1.19297010       2.11746937       4.49999075
       115    1        0.45059576       2.13923775       5.71347626
       116    1        1.63432999       1.45201247      12.28648674
       117    1        3.44108767       7.29031077       3.28650524
       118    1        4.70751959       0.14511382      11.05492928
       119    1        1.02307442       2.62521476       2.05060978
       120    1        3.44108767       7.29031077       5.71347626
       121    1        4.70820765       0.23398828       3.29273323
       122    1        0.36789807       8.59720942       6.94503372
       123    1       -1.60395025       8.40788566       5.70928226
       124    1        7.28354782       4.58227998      15.94501522
       125    1        2.51882738       2.70257558       4.49999075
       126    1        1.77250623       2.19012682      11.05059128
       127    1        5.12627632       5.49582653      10.26501890
       128    1        2.47165499       8.34921593       5.71095626
       129    1       -3.02142812       5.96630340       3.29069924
       130    1        1.24733131       2.08590958      13.49997225
       131    1       -1.79319296       8.68513096      13.49997225
       132    1        6.02507127       6.28625495      14.71093776
       133    1        8.09684578       2.77601984      14.70926376
       134    1        3.34818555       0.46260878      11.05604527
       135    1        2.77270278       5.58958795      11.04902529
       136    1       -2.13129122       4.20470779      14.70722977
       137    1        6.83617529       1.07091711      15.94487122
       138    1        3.01100566       3.26489055       5.71365626
       139    1        3.47929313       5.17937192       2.04904379
       140    1       -1.76075763       7.67140613       6.94488972
