 # C4
 
           4  atoms
           1  atom types
 
      0.00000000       3.34210134  xlo xhi
      0.00000000       2.32992274  ylo yhi
      0.00000000       3.09657191  zlo zhi
