 # C12
 
          12  atoms
           1  atom types
 
      0.00000000       2.46724402  xlo xhi
      0.00000000       2.13669599  ylo yhi
      0.00000000      31.98297100  zlo zhi
