 # C8
 
           8  atoms
           1  atom types
 
      0.00000000       2.51994355  xlo xhi
      0.00000000       2.18233539  ylo yhi
      0.00000000       8.30744500  zlo zhi
     -1.25997132       0.00000000       0.00000000  xy xz yz
 
Masses
 
           1   12.01100000    # C 
 
Atoms # atomic
 
         1    1        0.00000000       0.00000000       4.92599089
         2    1       -0.00000096       1.45489099       2.86160743
         3    1        0.00000000       0.00000000       3.38145411
         4    1        1.25997319       0.72744440       5.44583757
         5    1        0.00000000       0.00000000       7.53517661
         6    1       -0.00000096       1.45489099       1.29211507
         7    1        0.00000000       0.00000000       0.77226839
         8    1        1.25997319       0.72744440       7.01532993
