 # C8
 
           8  atoms
           1  atom types
 
      0.00000000       4.22354527  xlo xhi
      0.00000000       3.98199667  ylo yhi
      0.00000000       3.44851027  zlo zhi
     -1.40784842      -1.40784842      -1.99099833  xy xz yz
 
Masses
 
           1   12.01100000    # C 
 
Atoms # atomic
 
         1    1        1.37363630       0.00000000       0.00000000
         2    1        0.94996966       1.34345997       2.32694093
         3    1       -0.45787877       1.29507672       0.00000000
         4    1       -0.45787877      -0.64753836       1.12156934
         5    1       -0.94996966       2.68691995       0.00000000
         6    1        0.45787877       0.64753836       1.12156934
         7    1        2.84990897       0.00000000       0.00000000
         8    1       -0.94996966      -1.34345997       2.32694093
