 # C4
 
           4  atoms
           1  atom types
 
      0.00000000       3.57127053  xlo xhi
      0.00000000       3.36702615  ylo yhi
      0.00000000       2.91593018  zlo zhi
     -1.19042351      -1.19042351      -1.68351307  xy xz yz
 
Masses
 
           1   12.01100000    # C 
 
Atoms # atomic
 
         1    1        1.48802939      -0.42087827       0.72898254
         2    1        0.29760588       1.68351307       0.00000000
         3    1       -0.89281763       0.00000000       1.45796509
         4    1        0.29760588       0.42087827       0.72898254
