 # C2
 
           2  atoms
           1  atom types
 
      0.00000000       2.46803028  xlo xhi
      0.00000000       2.13737676  ylo yhi
      0.00000000      19.99829300  zlo zhi
