 # C2
 
           2  atoms
           1  atom types
 
      0.00000000       2.46841603  xlo xhi
      0.00000000       2.13771097  ylo yhi
      0.00000000       9.99905800  zlo zhi
