 # C8
 
           8  atoms
           1  atom types
 
      0.00000000       3.87714377  xlo xhi
      0.00000000       3.65540620  ylo yhi
      0.00000000       3.16567463  zlo zhi
     -1.29238126      -1.29238126      -1.82770310  xy xz yz
 
Masses
 
           1   12.01100000    # C 
 
Atoms # atomic
 
         1    1        1.04906335      -1.25795504       2.17884204
         2    1        2.02233499       1.82770310       0.00000000
         3    1       -1.53569917       1.60205853       1.58283732
         4    1        1.04906335       1.48359961       2.56966990
         5    1        1.53569917      -0.56974806       0.98683259
         6    1        0.56242752       1.82770310       0.00000000
         7    1       -1.04906334       0.22564457       1.58283732
         8    1        0.24331791       0.34410349       0.59600473
