 # C4
 
           4  atoms
           1  atom types
 
      0.00000000       2.46803165  xlo xhi
      0.00000000       2.13737831  ylo yhi
      0.00000000      14.99756200  zlo zhi
     -1.23401547       0.00000000       0.00000000  xy xz yz
 
Masses
 
           1   12.01100000    # C 
 
Atoms # atomic
 
         1    1        0.00000000       0.00000000       3.74939050
         2    1        0.00000000       0.00000000      11.24817150
         3    1       -0.00000100       1.42491959       3.74939050
         4    1        1.23401718       0.71245872      11.24817150
