 # C8
 
           8  atoms
           1  atom types
 
      0.00000000       4.76301000  xlo xhi
      0.00000000       2.43527146  ylo yhi
      0.00000000       4.12025500  zlo zhi
