 # C48
 
          48  atoms
           1  atom types
 
      0.00000000       4.71844100  xlo xhi
      0.00000000      10.10800500  ylo yhi
      0.00000000      15.08966500  zlo zhi
      0.00000000       0.00000000       4.34850300  xy xz yz
 
Masses
 
           1   12.01100000    # C 
 
Atoms # atomic
 
         1    1        4.34250393       6.11922679       9.41994972
         2    1        1.98328343       5.45753021      13.21454778
         3    1        0.37593707       8.33728121       5.66971528
         4    1        2.73515757       8.99897779       1.87511722
         5    1        4.57943573       4.77326216       9.19149219
         6    1        2.22021523       6.80349484      13.44300531
         7    1        0.13900527       9.68324584       5.89817281
         8    1        2.49822577       7.65301316       1.64665969
         9    1        4.06760284       4.04541289       8.32459094
        10    1        1.70838234       7.53134411      14.30990656
        11    1        0.65083816      10.41109511       6.76507406
        12    1        3.01005866       6.92516389       0.77975844
        13    1        3.14018854       4.39709437       7.35746413
        14    1        0.78096804       2.83115963       0.18736837
        15    1        1.57825246      10.05941363       7.73220087
        16    1        3.93747296      11.62534837      14.90229663
        17    1        2.48975617       3.74489443       6.32115121
        18    1        0.13053567       3.48335957       1.22368129
        19    1        2.22868483      10.71161357       8.76851379
        20    1        4.58790533      10.97314843      13.86598371
        21    1        1.66074024       4.21521379       5.52589568
        22    1        4.01996074       3.01304021       2.01893682
        23    1        3.05770076      10.24129421       9.56376932
        24    1        0.69848026      11.44346779      13.07072818
        25    1        1.16777168       5.50941500       5.47146726
        26    1        3.52699218       1.71883900       2.07336524
        27    1        3.55066932       8.94709735       9.61821283
        28    1        1.19144882      12.73766465      13.01628467
        29    1        0.24912897       6.19212205       4.69181445
        30    1        2.60834947       1.03613195       2.85301805
        31    1        4.46931203       8.26438595      10.39785055
        32    1        2.11009153      13.42037605      12.23664695
        33    1        4.62535560       7.38441682       4.77829332
        34    1        2.26613510       9.95184218       2.76653918
        35    1        0.09308540       7.07209118      10.31137168
        36    1        2.45230590       4.50466582      12.32312582
        37    1        3.33038890       6.68275987       8.46940645
        38    1        0.97116840       4.89399713      14.16509105
        39    1        1.38805210       7.77374813       6.62025855
        40    1        3.74727260       9.56251087       0.92457395
        41    1        2.74457086       5.83719920       7.45124640
        42    1        0.38535036       1.39105480       0.09358610
        43    1        1.97387014       8.61930880       7.63841860
        44    1        4.33309064      13.06545320      14.99607890
        45    1        1.77520962       6.38347274       6.52502767
        46    1        4.13443012       0.84478126       1.01980483
        47    1        2.94323138       8.07303526       8.56463733
        48    1        0.58401088      13.61172674      14.06986017
