 # C20
 
          20  atoms
           1  atom types
 
      0.00000000       8.96410805  xlo xhi
      0.00000000       6.28563052  ylo yhi
      0.00000000       8.29595353  zlo zhi
