 # C100
 
         100  atoms
           1  atom types
 
      0.00000000      10.24840442  xlo xhi
      0.00000000      10.90121277  ylo yhi
      0.00000000      10.08704342  zlo zhi
     -0.21133824       0.00948375       0.85696478  xy xz yz
 
Masses
 
           1   12.01100000    # C 
 
Atoms # atomic
 
         1    1        9.00525692       1.35951578       2.28003868
         2    1        7.39353740       1.38005491       9.18783998
         3    1        8.73859468       8.72801078       0.10348328
         4    1        9.29473551       9.07309123       1.28814873
         5    1        3.35093077       5.43698256       4.68014394
         6    1        9.09206792       8.75683702       6.22015777
         7    1        7.43511712       7.02803465       6.52235036
         8    1        8.91198564       3.17819983       7.99084030
         9    1        4.50954235       7.81254489       7.75420935
        10    1        9.30572715       2.61984389       6.72404947
        11    1        2.57565141       8.11554487       9.19138437
        12    1        1.14716942       1.31555964       9.84596005
        13    1        3.68834613       6.94878427       2.62171811
        14    1        3.52580594       0.91749039       2.71936351
        15    1        8.22124439       4.69096428       5.65965577
        16    1        5.90062700       3.49929221       2.41652091
        17    1        2.48943313       7.75549894       0.46487421
        18    1        4.16621158       1.92073924       1.88656773
        19    1        2.31028730       3.24409927       4.13609673
        20    1        0.27987293       7.02269022       3.85987202
        21    1        9.37127848       6.19828666       3.57388336
        22    1        3.00823859       5.71284453       8.37924463
        23    1        8.75909838       9.21784524       4.98858454
        24    1        6.93689781       2.70802018       9.24797490
        25    1        5.78752477       9.26173133       2.49547987
        26    1        2.92850070       4.18536944       5.09886407
        27    1        6.72569056       5.96239812       0.76273431
        28    1        2.71966784       1.55328685       7.36852520
        29    1        8.71138256       6.29688286       2.34920705
        30    1        7.89931643       9.75216115       9.15230736
        31    1        3.85830510       4.87079774       7.52921947
        32    1        2.22260039       4.13283371       0.45065773
        33    1        1.22008797       1.47661463       7.72791405
        34    1        2.32294950       3.69264939       2.82250121
        35    1        3.56075026       7.06921634       8.86606047
        36    1        3.63019699      10.40618413       2.90507889
        37    1        4.45957671       9.33235054       2.88881979
        38    1        4.81177798       9.27893620       7.99137380
        39    1        0.50949329      10.96853236       1.04112491
        40    1        7.76065495       6.13102403       1.51667131
        41    1        0.86604684       1.65837910       5.34865971
        42    1        2.39982329      10.15955593       3.66174776
        43    1        8.43855385       2.03602049       3.34391441
        44    1        7.44114932      11.08828625       9.07660269
        45    1        5.89166900       5.59893040       8.91171453
        46    1        6.34811168       4.48052533       3.40481231
        47    1        6.61483237       6.51529466       5.66175751
        48    1        6.72900197       4.82293352       7.84019938
        49    1        8.02779263       8.18770632       7.11453465
        50    1        3.65604410       6.51232530       5.52228759
        51    1        6.98941113       9.19360653       2.27057068
        52    1        3.44953608       6.99470403       1.25308667
        53    1        3.25827206       3.92957270       6.51410622
        54    1        8.25695033       2.92529864       4.36162214
        55    1        0.28347411       1.80183005       6.53451201
        56    1        6.72548249       2.67578974       1.54524235
        57    1        1.32137857       9.96666794       9.12588133
        58    1        0.72358499       2.35707177       1.57276606
        59    1        3.72582269       8.15378367       3.57223544
        60    1        4.51554542       3.30834536       2.26667778
        61    1        8.73634286       9.35324511       3.74362016
        62    1        3.35159358       4.81294165       0.95661747
        63    1        5.47423735       5.57812302       3.71384018
        64    1        6.07162459       2.10603125       0.35037829
        65    1        1.24094280       8.59368035       7.13154151
        66    1        2.27996589       8.77699340       3.87546225
        67    1        8.71399798       5.23087236       4.37761959
        68    1        1.04450262      11.27307879       8.80480408
        69    1        1.77615600       1.83279100       4.39589529
        70    1        7.36346539       5.50187582       6.57455717
        71    1        1.60646268       3.35080882       1.59391284
        72    1        0.75183321       2.35452784       8.95276396
        73    1        7.63939721       4.29053120       4.03353480
        74    1        0.17748450       8.66131900       6.52480393
        75    1        4.51357289       7.56777792       4.85010487
        76    1        5.87974332       8.51917639       8.15711754
        77    1        1.49468112       8.80365028       0.45171233
        78    1        5.69131913       6.64083529       4.59498639
        79    1        0.07418817       1.20582343       1.69187488
        80    1        7.83345269       2.05427838       2.06841170
        81    1        3.55826128       4.45674641       2.39628217
        82    1        0.49079637       9.56749008       1.25152863
        83    1        4.12799313       5.88367979       0.25474848
        84    1        4.14389294       7.45411026       6.34550442
        85    1        8.39376572       9.22253101       2.43191294
        86    1        4.91163039       1.56459642       0.79531465
        87    1        5.69222848       5.56051440       0.00274620
        88    1        4.00677711       5.61155844       3.27196211
        89    1        8.62878236       3.21552297       5.65987022
        90    1        4.17700904      10.46795426       7.74486875
        91    1        1.81285292       8.86022453       8.35325133
        92    1        2.15773468       4.99523917       9.15195845
        93    1        9.88250545       3.13978724       8.97505632
        94    1        3.14846681       2.71416177       6.97003392
        95    1        7.49128169       3.60351297       8.34346952
        96    1        3.39232280      11.37503969       7.50636152
        97    1        1.18314365       7.86634415       3.95063423
        98    1        7.34962400       8.73210571       8.17530953
        99    1        5.19486123       4.91714718       7.96874786
       100    1        2.41610497       0.77265358       3.61522299
