 # C10
 
          10  atoms
           1  atom types
 
      0.00000000      10.47059900  xlo xhi
      0.00000000       2.50265969  ylo yhi
      0.00000000       2.17788800  zlo zhi
