 # C8
 
           8  atoms
           1  atom types
 
      0.00000000       4.87443177  xlo xhi
      0.00000000       3.82842092  ylo yhi
      0.00000000       2.51468900  zlo zhi
