 # C240
 
         240  atoms
           1  atom types
 
      0.00000000      14.29570032  xlo xhi
      0.00000000      14.29570032  ylo yhi
      0.00000000      14.29570032  zlo zhi
 
Masses
 
           1   12.01100000    # C 
 
Atoms # atomic
 
         1    1        5.71298357      10.36428066      13.83157626
         2    1        8.58271675       3.21643050       7.61197422
         3    1        1.43486659       3.93141966       6.68372610
         4    1       12.86083373      11.07926982       0.46412406
         5    1       13.83157626       5.71298357      10.36428066
         6    1        7.61197422       8.58271675       3.21643050
         7    1        6.68372610       1.43486659       3.93141966
         8    1        0.46412406      12.86083373      11.07926982
         9    1       10.36428066      13.83157626       5.71298357
        10    1        3.21643050       7.61197422       8.58271675
        11    1        3.93141966       6.68372610       1.43486659
        12    1       11.07926982       0.46412406      12.86083373
        13    1        8.58271675       3.93141966       0.46412406
        14    1        5.71298357      11.07926982       6.68372610
        15    1       12.86083373      10.36428066       7.61197422
        16    1        1.43486659       3.21643050      13.83157626
        17    1        0.46412406       8.58271675       3.93141966
        18    1        6.68372610       5.71298357      11.07926982
        19    1        7.61197422      12.86083373      10.36428066
        20    1       13.83157626       1.43486659       3.21643050
        21    1        3.93141966       0.46412406       8.58271675
        22    1       11.07926982       6.68372610       5.71298357
        23    1       10.36428066       7.61197422      12.86083373
        24    1        3.21643050      13.83157626       1.43486659
        25    1        7.05649620      10.61074111      13.52447231
        26    1        7.23920412       3.46289095       7.91907817
        27    1        0.09135396       3.68495921       6.37662215
        28    1       14.20434636      10.83280937       0.77122801
        29    1       13.52447231       7.05649620      10.61074111
        30    1        7.91907817       7.23920412       3.46289095
        31    1        6.37662215       0.09135396       3.68495921
        32    1        0.77122801      14.20434636      10.83280937
        33    1       10.61074111      13.52447231       7.05649620
        34    1        3.46289095       7.91907817       7.23920412
        35    1        3.68495921       6.37662215       0.09135396
        36    1       10.83280937       0.77122801      14.20434636
        37    1        7.23920412       3.68495921       0.77122801
        38    1        7.05649620      10.83280937       6.37662215
        39    1       14.20434636      10.61074111       7.91907817
        40    1        0.09135396       3.46289095      13.52447231
        41    1        0.77122801       7.23920412       3.68495921
        42    1        6.37662215       7.05649620      10.83280937
        43    1        7.91907817      14.20434636      10.61074111
        44    1       13.52447231       0.09135396       3.46289095
        45    1        3.68495921       0.77122801       7.23920412
        46    1       10.83280937       6.37662215       7.05649620
        47    1       10.61074111       7.91907817      14.20434636
        48    1        3.46289095      13.52447231       0.09135396
        49    1        5.32034759      10.06505436       0.90259349
        50    1        8.97535273       2.91720420       6.24525667
        51    1        1.82750257       4.23064596       8.05044365
        52    1       12.46819775      11.37849612      13.39310683
        53    1        0.90259349       5.32034759      10.06505436
        54    1        6.24525667       8.97535273       2.91720420
        55    1        8.05044365       1.82750257       4.23064596
        56    1       13.39310683      12.46819775      11.37849612
        57    1       10.06505436       0.90259349       5.32034759
        58    1        2.91720420       6.24525667       8.97535273
        59    1        4.23064596       8.05044365       1.82750257
        60    1       11.37849612      13.39310683      12.46819775
        61    1        8.97535273       4.23064596      13.39310683
        62    1        5.32034759      11.37849612       8.05044365
        63    1       12.46819775      10.06505436       6.24525667
        64    1        1.82750257       2.91720420       0.90259349
        65    1       13.39310683       8.97535273       4.23064596
        66    1        8.05044365       5.32034759      11.37849612
        67    1        6.24525667      12.46819775      10.06505436
        68    1        0.90259349       1.82750257       2.91720420
        69    1        4.23064596      13.39310683       8.97535273
        70    1       11.37849612       8.05044365       5.32034759
        71    1       10.06505436       6.24525667      12.46819775
        72    1        2.91720420       0.90259349       1.82750257
        73    1        7.64551880      10.05155521      12.31730549
        74    1        6.65018152       2.90370505       9.12624499
        75    1       13.79803168       4.24414511       5.16945533
        76    1        0.49766864      11.39199527       1.97839483
        77    1       12.31730549       7.64551880      10.05155521
        78    1        9.12624499       6.65018152       2.90370505
        79    1        5.16945533      13.79803168       4.24414511
        80    1        1.97839483       0.49766864      11.39199527
        81    1       10.05155521      12.31730549       7.64551880
        82    1        2.90370505       9.12624499       6.65018152
        83    1        4.24414511       5.16945533      13.79803168
        84    1       11.39199527       1.97839483       0.49766864
        85    1        6.65018152       4.24414511       1.97839483
        86    1        7.64551880      11.39199527       5.16945533
        87    1        0.49766864      10.05155521       9.12624499
        88    1       13.79803168       2.90370505      12.31730549
        89    1        1.97839483       6.65018152       4.24414511
        90    1        5.16945533       7.64551880      11.39199527
        91    1        9.12624499       0.49766864      10.05155521
        92    1       12.31730549      13.79803168       2.90370505
        93    1        4.24414511       1.97839483       6.65018152
        94    1       11.39199527       5.16945533       7.64551880
        95    1       10.05155521       9.12624499       0.49766864
        96    1        2.90370505      12.31730549      13.79803168
        97    1        4.90305467       9.54850767      12.94223331
        98    1        9.39264565       2.40065751       8.50131717
        99    1        2.24479549       4.74719265       5.79438315
       100    1       12.05090483      11.89504281       1.35346701
       101    1       12.94223331       4.90305467       9.54850767
       102    1        8.50131717       9.39264565       2.40065751
       103    1        5.79438315       2.24479549       4.74719265
       104    1        1.35346701      12.05090483      11.89504281
       105    1        9.54850767      12.94223331       4.90305467
       106    1        2.40065751       8.50131717       9.39264565
       107    1        4.74719265       5.79438315       2.24479549
       108    1       11.89504281       1.35346701      12.05090483
       109    1        9.39264565       4.74719265       1.35346701
       110    1        4.90305467      11.89504281       5.79438315
       111    1       12.05090483       9.54850767       8.50131717
       112    1        2.24479549       2.40065751      12.94223331
       113    1        1.35346701       9.39264565       4.74719265
       114    1        5.79438315       4.90305467      11.89504281
       115    1        8.50131717      12.05090483       9.54850767
       116    1       12.94223331       2.24479549       2.40065751
       117    1        4.74719265       1.35346701       9.39264565
       118    1       11.89504281       5.79438315       4.90305467
       119    1        9.54850767       8.50131717      12.05090483
       120    1        2.40065751      12.94223331       2.24479549
       121    1        7.68313322      10.28606174       1.59341434
       122    1        6.61256710       3.13821158       5.55443582
       123    1       13.76041726       4.00963858       8.74126450
       124    1        0.53528306      11.15748874      12.70228598
       125    1        1.59341434       7.68313322      10.28606174
       126    1        5.55443582       6.61256710       3.13821158
       127    1        8.74126450      13.76041726       4.00963858
       128    1       12.70228598       0.53528306      11.15748874
       129    1       10.28606174       1.59341434       7.68313322
       130    1        3.13821158       5.55443582       6.61256710
       131    1        4.00963858       8.74126450      13.76041726
       132    1       11.15748874      12.70228598       0.53528306
       133    1        6.61256710       4.00963858      12.70228598
       134    1        7.68313322      11.15748874       8.74126450
       135    1        0.53528306      10.28606174       5.55443582
       136    1       13.76041726       3.13821158       1.59341434
       137    1       12.70228598       6.61256710       4.00963858
       138    1        8.74126450       7.68313322      11.15748874
       139    1        5.55443582       0.53528306      10.28606174
       140    1        1.59341434      13.76041726       3.13821158
       141    1        4.00963858      12.70228598       6.61256710
       142    1       11.15748874       8.74126450       7.68313322
       143    1       10.28606174       5.55443582       0.53528306
       144    1        3.13821158       1.59341434      13.76041726
       145    1        8.06032312      10.57446091       0.27525499
       146    1        6.23537720       3.42661075       6.87259517
       147    1       13.38322736       3.72123941       7.42310515
       148    1        0.91247296      10.86908957      14.02044533
       149    1        0.27525499       8.06032312      10.57446091
       150    1        6.87259517       6.23537720       3.42661075
       151    1        7.42310515      13.38322736       3.72123941
       152    1       14.02044533       0.91247296      10.86908957
       153    1       10.57446091       0.27525499       8.06032312
       154    1        3.42661075       6.87259517       6.23537720
       155    1        3.72123941       7.42310515      13.38322736
       156    1       10.86908957      14.02044533       0.91247296
       157    1        6.23537720       3.72123941      14.02044533
       158    1        8.06032312      10.86908957       7.42310515
       159    1        0.91247296      10.57446091       6.87259517
       160    1       13.38322736       3.42661075       0.27525499
       161    1       14.02044533       6.23537720       3.72123941
       162    1        7.42310515       8.06032312      10.86908957
       163    1        6.87259517       0.91247296      10.57446091
       164    1        0.27525499      13.38322736       3.42661075
       165    1        3.72123941      14.02044533       6.23537720
       166    1       10.86908957       7.42310515       8.06032312
       167    1       10.57446091       6.87259517       0.91247296
       168    1        3.42661075       0.27525499      13.38322736
       169    1        6.28886270      10.02572731       1.91312124
       170    1        8.00683762       2.87787715       5.23472892
       171    1        0.85898746       4.26997301       9.06097140
       172    1       13.43671286      11.41782317      12.38257908
       173    1        1.91312124       6.28886270      10.02572731
       174    1        5.23472892       8.00683762       2.87787715
       175    1        9.06097140       0.85898746       4.26997301
       176    1       12.38257908      13.43671286      11.41782317
       177    1       10.02572731       1.91312124       6.28886270
       178    1        2.87787715       5.23472892       8.00683762
       179    1        4.26997301       9.06097140       0.85898746
       180    1       11.41782317      12.38257908      13.43671286
       181    1        8.00683762       4.26997301      12.38257908
       182    1        6.28886270      11.41782317       9.06097140
       183    1       13.43671286      10.02572731       5.23472892
       184    1        0.85898746       2.87787715       1.91312124
       185    1       12.38257908       8.00683762       4.26997301
       186    1        9.06097140       6.28886270      11.41782317
       187    1        5.23472892      13.43671286      10.02572731
       188    1        1.91312124       0.85898746       2.87787715
       189    1        4.26997301      12.38257908       8.00683762
       190    1       11.41782317       9.06097140       6.28886270
       191    1       10.02572731       5.23472892      13.43671286
       192    1        2.87787715       1.91312124       0.85898746
       193    1        6.86517356       9.26624808      11.45976518
       194    1        7.43052676       2.11839792       9.98378530
       195    1        0.28267660       5.02945224       4.31191502
       196    1       14.01302372      12.17730240       2.83593514
       197    1       11.45976518       6.86517356       9.26624808
       198    1        9.98378530       7.43052676       2.11839792
       199    1        4.31191502       0.28267660       5.02945224
       200    1        2.83593514      14.01302372      12.17730240
       201    1        9.26624808      11.45976518       6.86517356
       202    1        2.11839792       9.98378530       7.43052676
       203    1        5.02945224       4.31191502       0.28267660
       204    1       12.17730240       2.83593514      14.01302372
       205    1        7.43052676       5.02945224       2.83593514
       206    1        6.86517356      12.17730240       4.31191502
       207    1       14.01302372       9.26624808       9.98378530
       208    1        0.28267660       2.11839792      11.45976518
       209    1        2.83593514       7.43052676       5.02945224
       210    1        4.31191502       6.86517356      12.17730240
       211    1        9.98378530      14.01302372       9.26624808
       212    1       11.45976518       0.28267660       2.11839792
       213    1        5.02945224       2.83593514       7.43052676
       214    1       12.17730240       4.31191502       6.86517356
       215    1        9.26624808       9.98378530      14.01302372
       216    1        2.11839792      11.45976518       0.28267660
       217    1        5.47091333       9.00970973      11.77917473
       218    1        8.82478699       1.86185957       9.66437575
       219    1        1.67693683       5.28599059       4.63132457
       220    1       12.61876349      12.43384075       2.51652559
       221    1       11.77917473       5.47091333       9.00970973
       222    1        9.66437575       8.82478699       1.86185957
       223    1        4.63132457       1.67693683       5.28599059
       224    1        2.51652559      12.61876349      12.43384075
       225    1        9.00970973      11.77917473       5.47091333
       226    1        1.86185957       9.66437575       8.82478699
       227    1        5.28599059       4.63132457       1.67693683
       228    1       12.43384075       2.51652559      12.61876349
       229    1        8.82478699       5.28599059       2.51652559
       230    1        5.47091333      12.43384075       4.63132457
       231    1       12.61876349       9.00970973       9.66437575
       232    1        1.67693683       1.86185957      11.77917473
       233    1        2.51652559       8.82478699       5.28599059
       234    1        4.63132457       5.47091333      12.43384075
       235    1        9.66437575      12.61876349       9.00970973
       236    1       11.77917473       1.67693683       1.86185957
       237    1        5.28599059       2.51652559       8.82478699
       238    1       12.43384075       4.63132457       5.47091333
       239    1        9.00970973       9.66437575      12.61876349
       240    1        1.86185957      11.77917473       1.67693683
