 # C2
 
           2  atoms
           1  atom types
 
      0.00000000       4.26545979  xlo xhi
      0.00000000       2.36277204  ylo yhi
      0.00000000       2.10485300  zlo zhi
