 # C8
 
           8  atoms
           1  atom types
 
      0.00000000       3.54923433  xlo xhi
      0.00000000       3.54649577  ylo yhi
      0.00000000       5.43134400  zlo zhi
     -0.13939900       0.00000000       0.00000000  xy xz yz
 
Masses
 
           1   12.01100000    # C 
 
Atoms # atomic
 
         1    1        0.85245883       0.88662394       0.70966484
         2    1        3.11052927       1.38945321       4.14609248
         3    1        2.55737649       2.65987183       0.70966484
         4    1        0.85245883       0.88662394       4.72167916
         5    1        2.55737649       2.65987183       4.72167916
         6    1        2.14362272       0.38379468       4.14609248
         7    1        0.29930606       2.15704256       1.28525152
         8    1        1.26621260       3.16270109       1.28525152
