 # C100
 
         100  atoms
           1  atom types
 
      0.00000000      10.20551605  xlo xhi
      0.00000000      10.41950086  ylo yhi
      0.00000000      10.51549978  zlo zhi
      0.06995950      -0.63999662      -0.24662752  xy xz yz
 
Masses
 
           1   12.01100000    # C 
 
Atoms # atomic
 
         1    1       -0.22132902       7.41223664       7.83213888
         2    1        9.38516125       6.80063221       6.79085339
         3    1        3.41117408       4.65235269       7.63733682
         4    1        7.11314323       2.80599374       9.12292899
         5    1        8.51755780       7.06043987      10.06076099
         6    1        2.33271305      10.04634482       6.58771392
         7    1        7.89324498       3.54578136       4.53818002
         8    1        1.38094911       1.91083755       9.18408955
         9    1        2.10997904       7.42999244       1.11351224
        10    1        2.07144791       9.34536612       2.69427673
        11    1        9.03333930       2.13222703       6.30369437
        12    1        8.63337678       3.40734572       5.81648666
        13    1        4.15114419      10.24069984       4.69317229
        14    1        4.92796761       0.77879444       4.02725239
        15    1        3.85654522       4.39923545       9.05635683
        16    1        0.72990460       6.07024285       9.55927670
        17    1        8.48419409       9.08209855       2.94292886
        18    1        0.08948265       0.50546268       2.14379473
        19    1        3.75545434      10.17065332       6.03801995
        20    1        8.83779206       9.71941663       8.12274933
        21    1        0.61215961       8.61015107       7.51207588
        22    1        4.28475216       8.05234168       8.14709187
        23    1        5.25802804       3.30052368       6.78363934
        24    1        4.64742408       9.14913527       0.08601879
        25    1        2.14700891       5.07807638       7.64685398
        26    1        8.76462242       6.38936309       2.02553553
        27    1        2.10938248       3.03600991       3.59397521
        28    1        8.95583939       3.92213921       3.28550324
        29    1        0.84793630      10.06343101       3.27107965
        30    1        1.18357136       0.14735655       5.67783948
        31    1        0.72241609      -0.01528396       0.91103577
        32    1        8.30557529      10.20839237       3.66512519
        33    1        6.24067709       8.27899376       9.76745562
        34    1        5.19420540       5.77232045       1.79453082
        35    1        0.31744295       8.40838312       9.97182804
        36    1       -0.27978652       7.17524573       9.34218042
        37    1       -0.13747465       0.06853837       6.04742985
        38    1        6.20583917       2.22934378       8.45111684
        39    1        4.82059245       5.21818571       9.58226537
        40    1        2.85620429       8.57063146       9.98017388
        41    1        1.95657994       8.92251298       7.52218832
        42    1        8.81825771       4.93143542      -0.05239421
        43    1        8.56650732       5.81769206       4.51458492
        44    1        5.91610626       9.11518154       0.00656377
        45    1        1.28231458       5.46818002       8.50110763
        46    1        5.76188115       2.00130410       4.17971095
        47    1        1.52048515       0.53902681       4.25033746
        48    1        1.30720913       6.73880466       3.18025297
        49    1        9.43296091       3.98320840       6.79551155
        50    1        2.59512544       3.77752490       0.08086009
        51    1        3.38310141       0.58028039       7.06825449
        52    1        7.82287435       3.64759321       9.82944029
        53    1        7.33230929       4.94084068       4.47058355
        54    1        2.43262027       4.99925825       0.90582103
        55    1        8.24262759       7.78298776       2.46771587
        56    1        4.21524421       5.01922767       2.59991810
        57    1        9.01478734       0.99235286       5.55180743
        58    1        1.95886009       6.19179462       0.40139692
        59    1       -0.37248776       9.70679478       7.21128200
        60    1        0.11915853       1.86599739       2.73246545
        61    1        2.80459520       2.20283604       8.85521866
        62    1        6.16205726       5.25920957       3.83122960
        63    1        5.43110591       7.59712050       8.70035553
        64    1        2.88315993      -0.06052724       3.69777476
        65    1        3.02366841       8.41590142       8.45230961
        66    1        8.93972280       6.16107919       0.50111446
        67    1        2.90844293       4.87382681       2.28345318
        68    1        3.02738257       3.36929723       9.64780416
        69    1        9.52090070       2.91221929       2.71081130
        70    1        9.63082529       9.95725874       2.99587745
        71    1        2.21314231       8.65204704       0.25261543
        72    1        4.77641587       3.07963457       3.88457862
        73    1        1.04032714       2.47031899      10.49729040
        74    1        7.71214186       8.16582764       9.82093672
        75    1        8.99586754       6.40963334       5.63801770
        76    1        1.95948527       7.73906769       2.50929405
        77    1        5.05522402       2.25947410       7.69396184
        78    1        8.02149295       0.93976459       4.52002291
        79    1        6.15380190       6.20011357       2.69920513
        80    1        4.99536767       4.42837418       3.66942298
        81    1        0.77171664       5.49249717       3.24204667
        82    1        4.65100118       4.54956729       6.85951845
        83    1        3.72765148       1.13444215       3.32755356
        84    1        5.89076222       2.54153908       0.98798336
        85    1        9.38277110       5.41628163       3.22314874
        86    1        0.45937475       2.10785023       8.25321230
        87    1        5.56118883       5.13074616       0.49910022
        88    1        3.69517137       1.63042308       7.91724649
        89    1       -0.34721899       2.64489281       7.38842222
        90    1        7.13687335       2.12637960       4.35531643
        91    1        5.42722447       5.60091950       7.30424775
        92    1        1.81557609       4.38475410       3.13068406
        93    1        1.20787869       1.94945631       3.70095370
        94    1        5.44053536       6.13040454       8.54778078
        95    1        3.48741222       2.49762478       3.52715173
        96    1        1.95726257       9.74708590       1.23586692
        97    1       -0.43797619       9.50696895      10.24651130
        98    1        8.54323770       9.36796075       9.37791040
        99    1        5.70149987       3.78042013       0.73906098
       100    1        7.36067778       6.82713461       2.37471174
