 # C60
 
          60  atoms
           1  atom types
 
      0.00000000       9.91610912  xlo xhi
      0.00000000       8.58760240  ylo yhi
      0.00000000       8.09646919  zlo zhi
