 # C4
 
           4  atoms
           1  atom types
 
      0.00000000       2.46870967  xlo xhi
      0.00000000       2.13682850  ylo yhi
      0.00000000       8.14990300  zlo zhi
