 # C2
 
           2  atoms
           1  atom types
 
      0.00000000       1.61127033  xlo xhi
      0.00000000       1.61106570  ylo yhi
      0.00000000       6.39903500  zlo zhi
     -0.02567847       0.00000000       0.00000000  xy xz yz
 
Masses
 
           1   12.01100000    # C 
 
Atoms # atomic
 
         1    1        1.06806196       0.53461926       4.79927625
         2    1        0.51752989       1.07644644       1.59975875
