 # C4
 
           4  atoms
           1  atom types
 
      0.00000000      11.93978167  xlo xhi
      0.00000000       2.45613339  ylo yhi
      0.00000000       2.13468200  zlo zhi
