 # C14
 
          14  atoms
           1  atom types
 
      0.00000000      14.55335435  xlo xhi
      0.00000000       2.51634716  ylo yhi
      0.00000000       2.18470400  zlo zhi
