 # C4
 
           4  atoms
           1  atom types
 
      0.00000000       2.46775207  xlo xhi
      0.00000000       2.13713594  ylo yhi
      0.00000000      25.82922100  zlo zhi
