 # C29
 
          29  atoms
           1  atom types
 
      0.00000000       7.76268106  xlo xhi
      0.00000000       7.31872589  ylo yhi
      0.00000000       6.33820255  zlo zhi
     -2.58756035      -2.58756035      -3.65936294  xy xz yz
 
Masses
 
           1   12.01100000    # C 
 
Atoms # atomic
 
         1    1        0.00000000       0.00000000       0.00000000
         2    1        2.20898216       2.02819459       0.00000000
         3    1       -2.96613855       2.64526565       4.58173450
         4    1        2.20898216      -1.01409730       1.75646804
         5    1        1.17587281       2.75871322       0.00000000
         6    1       -1.69242749       1.74461592       1.75646804
         7    1        3.48269322      -1.91474702       4.58173450
         8    1        3.48269322       4.92527198       0.63264769
         9    1       -1.69242749       0.64883798       2.38911573
        10    1        1.17587281      -1.37935661       2.38911573
        11    1        0.89513287       1.26590904       5.70555486
        12    1        3.76343317       2.28000634       3.94908682
        13    1        0.89513287       4.30820093       3.94908682
        14    1        6.28219029       0.00000000       0.00000000
        15    1       -2.09406343       5.92290581       0.00000000
        16    1       -2.09406343      -2.96145290       5.12938689
        17    1        0.49349692       0.69791004       1.20881565
        18    1        2.89020659       0.83603270       0.00000000
        19    1       -2.28491412       3.24134660       5.61417699
        20    1        2.89020659      -0.41801635       0.72402555
        21    1       -0.17518301       3.00359047       0.00000000
        22    1       -1.35751179       2.58557412       0.72402555
        23    1        3.81760892      -1.07378882       5.61417699
        24    1        3.81760892       5.39891431       1.87716010
        25    1       -1.35751179      -0.66576254       2.60118565
        26    1       -0.17518301      -1.50179523       2.60118565
        27    1        1.23004857       1.73955136       4.46104245
        28    1        2.41237734       2.15756771       3.73701690
        29    1        1.23004857       2.99360041       3.73701690
