 # C28
 
          28  atoms
           1  atom types
 
      0.00000000       6.07398400  xlo xhi
      0.00000000       8.52385200  ylo yhi
      0.00000000       9.36535100  zlo zhi
      0.00000000       0.00000000       1.35400500  xy xz yz
 
Masses
 
           1   12.01100000    # C 
 
Atoms # atomic
 
         1    1        2.43045611       8.07703780       6.39587916
         2    1        5.46744811       1.80081920       2.96947184
         3    1        3.48216644       8.75713413       6.13778881
         4    1        0.44517444       1.12072287       3.22756218
         5    1        4.44854336       9.16874325       6.93631610
         6    1        1.41155136       0.70911375       2.42903490
         7    1        4.39426017       8.89290048       8.17794624
         8    1        1.35726817       0.98495652       1.18740476
         9    1        4.23759997       6.79176363       1.77345096
        10    1        1.20060797       3.08609336       7.59190004
        11    1        4.12557141       6.46338211       2.99858872
        12    1        1.08857941       3.41447489       6.36676228
        13    1        3.07957670       5.77925555       3.42377565
        14    1        0.04258470       4.09860144       5.94157535
        15    1        2.07101595       5.35755613       2.76074626
        16    1        5.10800795       4.52030087       6.60460473
        17    1        1.24021642       5.41187617       0.32283301
        18    1        4.27720842       4.46598083       9.04251798
        19    1        1.32254928       7.04145917       8.48416512
        20    1        4.35954128       2.83639783       0.88118588
        21    1        2.27729453       7.72978301       7.74640960
        22    1        5.31428653       2.14807399       1.61894140
        23    1        3.36749569       8.16694132       8.77229951
        24    1        0.33050369       1.71091568       0.59305149
        25    1        3.28526002       6.47021974       0.81009350
        26    1        0.24826802       3.40763726       8.55525750
        27    1        2.08470064       5.66559120       1.39405123
        28    1        5.12169264       4.21226580       7.97129977
