 # Cu2 Sb4 O12
 
          18  atoms
           3  atom types
 
      0.00000000       4.71053040  xlo xhi
      0.00000000       4.74763367  ylo yhi
      0.00000000       9.40013368  zlo zhi
