 # Zn6 Cr12 O24
 
          42  atoms
           3  atom types
 
      0.00000000       5.97285617  xlo xhi
      0.00000000       5.21549132  ylo yhi
      0.00000000      14.84906600  zlo zhi
      2.91095535       0.85504589       0.50197873  xy xz yz
 
Masses
 
           1   65.38000000    # Zn
           2   51.99610000    # Cr
           3   15.99900000    # O 
 
Atoms # atomic
 
         1    1        5.93127588       3.48212226       0.61139544
         2    1        3.24002007       1.90214488       4.92686070
         3    1        1.58721605       0.93181981       2.46197514
         4    1        6.49442346       3.81273388       9.91605778
         5    1        4.87404377       2.86144443       7.40794659
         6    1        8.13862814       4.77801047      12.37215270
         7    2        3.05918297       3.55186883       2.45642159
         8    2        9.20112493       5.40177908       5.55733720
         9    2        0.00984508       0.00577983       0.03243036
        10    2        4.59242368       0.94022198       2.45642159
        11    2        6.32385620       5.46414244       7.41831124
        12    2        3.59415122       2.11004753      10.49304794
        13    2        7.85330321       2.85895758       7.41831124
        14    2        6.68426245       2.17700147      12.39801977
        15    2        6.15531122       3.61364851       4.30676371
        16    2        5.15862444       4.77569825      12.39801977
        17    2        9.41442850       5.52700494       9.29312462
        18    2        3.81255079       2.23826513      14.27027911
        19    3        4.32839072       4.47043657       1.22233057
        20    3        8.89669668       5.22305592       3.61452995
        21    3        6.01308223       1.60081588       1.22233057
        22    3        7.58358295       4.45215558       1.33524286
        23    3        4.75906642       1.13854802       6.19390181
        24    3        4.58866412       2.69390428       3.48930777
        25    3        3.30694196       1.94143325       8.54611265
        26    3        3.13928026       0.18891495       3.66644228
        27    3        3.31357672       3.60072410       6.19390181
        28    3        3.16080307       1.85563831       1.34556296
        29    3        1.88692182       1.10777051       6.37978241
        30    3        1.69493266       2.64914566       3.66644228
        31    3        8.03439822       3.02748391      11.15259891
        32    3        7.85217066       4.60983755       8.46904600
        33    3        6.41535967       2.11078478       8.65624818
        34    3        6.55927239       5.54014073      11.15259891
        35    3        6.65139872       3.90489062      13.44193881
        36    3        6.43244732       3.77634905       6.28210526
        37    3        5.14503673       3.02053846      11.37141474
        38    3        4.96975056       4.57316427       8.65624818
        39    3        2.17645753       1.27775058      13.49460845
        40    3        3.75798039       4.06823572      13.67694013
        41    3        0.77896267       0.45731194      11.28932911
        42    3        5.38388341       1.29875245      13.67694013
