 # Zn4 Cr8 O16
 
          28  atoms
           3  atom types
 
      0.00000000       5.11398900  xlo xhi
      0.00000000       5.92920600  ylo yhi
      0.00000000      10.26801700  zlo zhi
 
Masses
 
           1   65.38000000    # Zn
           2   51.99610000    # Cr
           3   15.99900000    # O 
 
Atoms # atomic
 
         1    1        1.86872318       0.00000000       5.13400850
         2    1        3.24526582       2.96460300       0.00000000
         3    1        0.21405624       0.00000000       0.00000000
         4    1        4.89993276       2.96460300       5.13400850
         5    2        0.04917612       2.96460300       2.43548122
         6    2        0.04917612       2.96460300       7.83253578
         7    2        5.06481288       0.00000000       2.69852728
         8    2        5.06481288       0.00000000       7.56948972
         9    2        2.55699450       1.48230150       2.56700425
        10    2        2.55699450       4.44690450       7.70101275
        11    2        2.55699450       4.44690450       2.56700425
        12    2        2.55699450       1.48230150       7.70101275
        13    3        1.82177164       2.96460300       1.48197263
        14    3        1.82177164       2.96460300       8.78604437
        15    3        3.29221736       0.00000000       3.65203587
        16    3        3.29221736       0.00000000       6.61598113
        17    3        3.52839160       2.96460300       3.57353688
        18    3        3.52839160       2.96460300       6.69448012
        19    3        1.58559740       0.00000000       1.56047162
        20    3        1.58559740       0.00000000       8.70754538
        21    3        0.84833918       1.49312823       3.68769670
        22    3        0.84833918       4.43607777       6.58032030
        23    3        4.26564982       4.45773123       1.44631180
        24    3        4.26564982       1.47147477       8.82170520
        25    3        4.26564982       1.47147477       1.44631180
        26    3        4.26564982       4.45773123       8.82170520
        27    3        0.84833918       4.43607777       3.68769670
        28    3        0.84833918       1.49312823       6.58032030
