 # Zn2 Cr4 O8
 
          14  atoms
           3  atom types
 
      0.00000000       5.98626455  xlo xhi
      0.00000000       5.97796978  ylo yhi
      0.00000000       4.34045322  zlo zhi
