 # Zn2 Cr4 O8
 
          14  atoms
           3  atom types
 
      0.00000000       5.05326685  xlo xhi
      0.00000000       2.80937345  ylo yhi
      0.00000000       9.94085400  zlo zhi
