 # Zn6 Cr12 O24
 
          42  atoms
           3  atom types
 
      0.00000000       6.00506899  xlo xhi
      0.00000000       5.20054288  ylo yhi
      0.00000000      14.82334400  zlo zhi
     -3.00253348       0.00000000       0.00000000  xy xz yz
 
Masses
 
           1   65.38000000    # Zn
           2   51.99610000    # Cr
           3   15.99900000    # O 
 
Atoms # atomic
 
         1    1       -0.00000233       3.46703032       0.67352828
         2    1        0.00000000       0.00000000       5.63156627
         3    1        3.00253784       1.73351256       4.98476447
         4    1        3.00253784       1.73351256      10.48364699
         5    1        0.00000000       0.00000000       0.02730460
         6    1        0.00000000       0.00000000       9.23190453
         7    2        1.48742273       0.85876045       2.46718255
         8    2        3.00253818       3.48301679       2.46718255
         9    2        4.49729576       2.59651145       7.41807568
        10    2        4.51765260       0.85876045       2.46718255
        11    2        3.00253750       0.00751478       7.41807568
        12    2       -0.00000233       3.46703032       9.86747022
        13    2       -0.00000233       3.46703032       4.27241385
        14    2        1.49348252       4.32929073      12.33051706
        15    2        1.50778025       2.59651145       7.41807568
        16    2        0.00000034       1.74250430      12.33051706
        17    2       -1.49348083       4.32929073      12.33051706
        18    2        3.00253784       1.73351256      14.16204498
        19    3        1.61007095       4.39660656       1.34558905
        20    3        0.00000000       0.00000000       3.54861961
        21    3       -0.00000269       1.60787785       1.34558905
        22    3       -1.61007524       4.39660656       1.34558905
        23    3        1.60659634       0.92756883       6.30275246
        24    3        1.56882477       2.56126737       3.59338611
        25    3        3.00253784       1.73351256       8.48926982
        26    3        3.00253451       0.07800814       3.59338611
        27    3        3.00253784       1.73351256       1.38764288
        28    3        3.00253515       3.34540523       6.30275246
        29    3        4.39847301       0.92756883       6.30275246
        30    3        4.43624522       2.56126737       3.59338611
        31    3       -1.36103936       2.68122829      11.17238402
        32    3       -1.35742100       4.25073653       8.60337992
        33    3        0.00000037       1.89961270       8.60337992
        34    3       -0.00000233       3.46703032      13.41691994
        35    3       -0.00000233       3.46703032       6.32528394
        36    3        0.00000399       5.03862398      11.17238402
        37    3        1.36104641       2.68122829      11.17238402
        38    3        1.35742265       4.25073653       8.60337992
        39    3        4.56366344       0.83219607      13.46149374
        40    3        3.00253519       3.53615074      13.46149374
        41    3        0.00000000       0.00000000      11.29151924
        42    3        1.44140588       0.83219607      13.46149374
