 # Zn4 Cr8 O16
 
          28  atoms
           3  atom types
 
      0.00000000       2.94047100  xlo xhi
      0.00000000       9.66754800  ylo yhi
      0.00000000       9.95358400  zlo zhi
 
Masses
 
           1   65.38000000    # Zn
           2   51.99610000    # Cr
           3   15.99900000    # O 
 
Atoms # atomic
 
         1    1        1.97107416       8.26040739       2.48839600
         2    1        1.97107416       6.24091461       7.46518800
         3    1        0.96939684       3.42663339       2.48839600
         4    1        0.96939684       1.40714061       7.46518800
         5    2        0.67994275       5.96382335       4.27742333
         6    2        0.67994275       8.53749865       9.25421533
         7    2        2.26052825       3.70372465       9.25421533
         8    2        0.67994275       8.53749865       5.67616067
         9    2        2.26052825       3.70372465       5.67616067
        10    2        0.67994275       5.96382335       0.69936867
        11    2        2.26052825       1.13004935       0.69936867
        12    2        2.26052825       1.13004935       4.27742333
        13    3        2.15334808       4.65757327       1.09814906
        14    3        0.78712292       5.00997473       8.85543494
        15    3        2.14026004       7.25066100       0.00000000
        16    3        0.78712292       9.49134727       1.09814906
        17    3        0.78712292       9.49134727       3.87864294
        18    3        0.53610667       7.62643859       7.46518800
        19    3        2.15334808       0.17620073       8.85543494
        20    3        2.40436433       2.79266459       7.46518800
        21    3        2.14026004       7.25066100       4.97679200
        22    3        0.80021096       2.41688700       0.00000000
        23    3        2.15334808       4.65757327       3.87864294
        24    3        2.40436433       2.04110941       2.48839600
        25    3        0.53610667       6.87488341       2.48839600
        26    3        0.80021096       2.41688700       4.97679200
        27    3        2.15334808       0.17620073       6.07494106
        28    3        0.78712292       5.00997473       6.07494106
