 # Zn2 Cr4 O8
 
          14  atoms
           3  atom types
 
      0.00000000       7.35840967  xlo xhi
      0.00000000       2.92415567  ylo yhi
      0.00000000       7.27361400  zlo zhi
