 # Nd2 Cu1 O4
 
           7  atoms
           3  atom types
 
      0.00000000       3.98774313  xlo xhi
      0.00000000       3.98773912  ylo yhi
      0.00000000       6.00252700  zlo zhi
     -0.00565827       1.80537845       1.80794195  xy xz yz
 
Masses
 
           1   144.24200000    # Nd
           2   63.54600000    # Cu
           3   15.99900000    # O 
 
Atoms # atomic
 
         1    1        1.91241965       1.91513513       1.79492364
         2    1        3.87504367       3.88054593       4.20760336
         3    2        0.00000000       0.00000000       0.00000000
         4    3       -0.00282913       1.99386956       0.00000000
         5    3        3.90246086       1.89054162       3.00126350
         6    3        1.99387157       0.00000000       0.00000000
         7    3        1.88500246       3.90513944       3.00126350
