 # Ba2 Cu3 Cl2 O4
 
          11  atoms
           4  atom types
 
      0.00000000       8.20800718  xlo xhi
      0.00000000       6.90238113  ylo yhi
      0.00000000       3.93154199  zlo zhi
