 # Mn4 O4
 
           8  atoms
           2  atom types
 
      0.00000000       3.46772219  xlo xhi
      0.00000000       5.90235553  ylo yhi
      0.00000000       5.45452000  zlo zhi
     -0.00204636       0.00000948       0.00002427  xy xz yz
 
Masses
 
           1   54.93804500    # Mn
           2   15.99900000    # O 
 
Atoms # atomic
 
         1    1        1.73183526       4.89660624       2.71862549
         2    1        1.73385131       1.00575611       5.44595640
         3    1        3.46629661       1.94502122       2.71837459
         4    1       -0.00060314       3.95742966       5.44559095
         5    2       -0.00049601       1.97390394       0.62807707
         6    2        1.73245295       4.92486332       0.62836070
         7    2        1.73323328       0.97749223       3.35563707
         8    2        3.46618223       3.92846341       3.35533161
