 # Ni2 P2 S6
 
          10  atoms
           3  atom types
 
      0.00000000       5.82140587  xlo xhi
      0.00000000       5.04041360  ylo yhi
      0.00000000       6.62143000  zlo zhi
