 # Co40 O40
 
          80  atoms
           2  atom types
 
      0.00000000      10.08110670  xlo xhi
      0.00000000       9.97211472  ylo yhi
      0.00000000      10.16937277  zlo zhi
      0.93017773      -0.00022628      -0.44922301  xy xz yz
 
Masses
 
           1   58.93319500    # Co
           2   15.99900000    # O 
 
Atoms # atomic
 
         1    1        3.59390665       0.60486101       0.31111152
         2    1        0.73337146       5.69391598       5.97994142
         3    1        0.63968895       1.08665610       6.74456405
         4    1        7.60950400       7.06828796       0.59209719
         5    1        2.38766992       9.88717681       1.72832070
         6    1        9.34699593       5.40005459       2.96364342
         7    1       10.42489525       8.07235142       8.39107408
         8    1        7.00112071       3.53739121       2.80374092
         9    1        5.57646053       4.88866657       7.42906728
        10    1        9.80670886       3.05862700       4.79285803
        11    1        3.34964689       0.40725608       4.40077654
        12    1        6.55846506       1.49484552       1.51119584
        13    1        2.66252859       6.22212606       2.58625658
        14    1        9.16384656       9.26201387       0.71305435
        15    1        8.41776195       6.22921015       8.06084414
        16    1        3.77578100       6.26083708       5.37661603
        17    1        4.75182965       2.61088350       9.64423724
        18    1        7.17360918       5.40969872       5.33427554
        19    1        3.09831841       8.20195282       6.91764108
        20    1        9.16904269       1.18237633       9.44799052
        21    1        5.34277346       5.52999784       2.78356793
        22    1       10.83931505       8.12560831       4.14146567
        23    1        5.19233003       6.75599781       9.72416688
        24    1        2.74016276       8.06609083       9.90686383
        25    1        5.00193198       8.32753898       2.29030536
        26    1        7.61387604       4.01606382      10.05437954
        27    1       10.67241361       6.58286086       0.66413285
        28    1        6.96255945       9.37231462       9.15105103
        29    1       10.40865740       4.12697089       8.42201490
        30    1        1.41551741       3.17812180       0.56495208
        31    1        3.01273301       3.27161265       6.63702792
        32    1        7.72793105       9.44420599       4.06435762
        33    1        3.73332328       0.42481780       7.15483235
        34    1        8.16197285      -0.07819662       6.36840251
        35    1        8.21727228       3.22492153       6.90918657
        36    1        5.78272950       1.95257164       5.26854356
        37    1        9.36472212       1.19136476       2.62961421
        38    1        3.85215386       2.62148139       2.45148056
        39    1        2.73611579       5.27123877       8.54102972
        40    1        5.92849855       8.40796372       5.83736285
        41    2        8.83709009       2.89838420       3.06328691
        42    2        6.23605098       0.08762892       6.06671495
        43    2        2.17414999      -0.04554471       6.11652861
        44    2        2.67265710       5.19033274       6.49226730
        45    2        3.18217694       2.49252980       0.53085397
        46    2        3.69224688       4.50894164       2.70290701
        47    2        3.62566923       7.10323730       8.49146511
        48    2        0.46945055       4.68486584       4.32162658
        49    2        0.80395444       8.52462637       0.17167508
        50    2        7.30905897       5.35162130       3.43977549
        51    2        5.65935522       9.01453410       0.28607463
        52    2        3.16597162       7.92922222       1.50460151
        53    2        1.68328985       7.47197905       5.63113255
        54    2        5.89284439       6.68156131       1.33137520
        55    2        6.74983236       5.53841186       8.92425572
        56    2        5.67741974       6.51240674       6.16106568
        57    2        8.31095658       7.83295888       9.24426330
        58    2        1.22781566       9.80234588       3.34520704
        59    2        3.06232684       0.70705825       2.49248703
        60    2        5.71119129       2.10677901       3.23770212
        61    2        6.45738116       3.59312902       6.16358423
        62    2        1.11699100       2.93249210       7.05738992
        63    2        1.54584791       4.51555219      10.02904631
        64    2        5.79807824       9.07791099       3.96359785
        65    2        8.87718069       5.64829230       0.96662115
        66    2        8.77143662       5.17391851       6.46306097
        67    2        9.52475323      -0.05948271       7.88806273
        68    2        0.72779213       6.83744863       2.67699687
        69    2        6.26965361       3.36658108       0.78985854
        70    2        8.79242297       3.02551901       8.80594045
        71    2        4.19333403       6.89529673       3.70356272
        72    2        8.99161812       1.69486581       5.84302933
        73    2        7.44321657       0.46844272      10.05213790
        74    2        4.15781212       3.89766851       8.31612397
        75    2        0.30086464       1.58238434       0.91948245
        76    2        7.69066622       0.07453153       2.41178462
        77    2       10.49689687       6.15571695       8.17824131
        78    2        4.67334727       0.74961254       8.74604885
        79    2        9.18669272       8.51555257       4.99176232
        80    2        3.87078099       1.86151857       5.65285494
