 # Co4 O4
 
           8  atoms
           2  atom types
 
      0.00000000       3.26946857  xlo xhi
      0.00000000       5.28898000  ylo yhi
      0.00000000       5.64627151  zlo zhi
     -0.00000211      -0.00000031      -0.00006312  xy xz yz
 
Masses
 
           1   58.93319500    # Co
           2   15.99900000    # O 
 
Atoms # atomic
 
         1    1       -0.00000231       5.28076118       3.76176628
         2    1        3.26946415       2.63629217       1.88453346
         3    1        1.63473867       5.28111008       0.93902012
         4    1        1.63473298       2.63659382       4.70726268
         5    2        1.63472690       1.99175063       0.93773842
         6    2        3.26946103       1.99096803       3.76076689
         7    2        0.00001440       4.63550015       1.88553285
         8    2        1.63473218       4.63616145       4.70846534
