 # Co40 O40
 
          80  atoms
           2  atom types
 
      0.00000000      10.35649660  xlo xhi
      0.00000000       9.40243518  ylo yhi
      0.00000000      10.24775885  zlo zhi
     -0.04435052      -0.21541461       0.48618058  xy xz yz
 
Masses
 
           1   58.93319500    # Co
           2   15.99900000    # O 
 
Atoms # atomic
 
         1    1        1.85561925       2.35950672       1.08875766
         2    1        1.25349157       5.30399637       2.20944478
         3    1       10.02369559       3.11179403       8.20087190
         4    1        6.47935021       6.69974326       9.74546310
         5    1        2.24921435       8.40274859       1.33074681
         6    1        7.16898241       8.92674503       0.79876269
         7    1        9.15848041       9.68121808       8.73355123
         8    1        4.23219250       2.35185478       3.03087839
         9    1        7.01533200       7.50461170       6.74507036
        10    1        1.03853885       3.68904029       5.54648603
        11    1        4.48563575       8.06038931       3.90404206
        12    1        7.19404420       3.45496902       1.57455964
        13    1        3.35167403       4.62284207       3.68916716
        14    1        0.14772661       0.86183628       3.45953691
        15    1        0.05960037       6.77176840       4.81510891
        16    1        2.74707894       5.92738435       6.38820241
        17    1        5.10709841       4.37204273       0.28611374
        18    1        7.89683878       7.92383306       4.10129820
        19    1        9.33363011       5.82595157       7.17784121
        20    1        6.43545456       1.97848382       8.80783836
        21    1        6.11573767       5.53288845       4.39143910
        22    1        9.61997521       8.05032950       1.73045459
        23    1        4.05410230       6.95548766       9.17532637
        24    1        1.05738499       7.56044588       8.37018025
        25    1        4.96987952       6.83128446       1.44211371
        26    1        7.67573773       3.23302341       6.39014549
        27    1       -0.03469489       5.07477035      10.19598092
        28    1        4.68057558       0.91489472       0.94499513
        29    1        7.79134941       4.48632767       9.32098802
        30    1        9.27463734       1.85658333       1.02979718
        31    1        3.13347928       3.38915358       8.43827681
        32    1        7.07827234       1.29245943       3.73963019
        33    1        2.67608554       0.51249113       9.00669007
        34    1        9.09932483       0.74041236       6.17181248
        35    1        9.15099917       3.84771280       3.93569114
        36    1        4.73112491       2.76304268       5.91303781
        37    1        8.03926110       5.78770456       1.99915647
        38    1        1.48881913       1.19867233       6.77176424
        39    1        5.53097640       5.01094304       7.68700531
        40    1        4.05094729       8.59972777       6.73093696
        41    2        7.34370905       4.50449826       3.21690206
        42    2        8.50768784       8.67729388       7.35943970
        43    2        2.55350674       8.09197053       9.69378335
        44    2        1.44019713       3.09879064       7.45540719
        45    2        2.96056144       2.13717636      10.06584442
        46    2        6.20808850       7.51769618       4.76082336
        47    2       10.01334570       6.34791675       8.95928773
        48    2        0.46428008       4.96714008       3.93730157
        49    2        1.33084224       0.65693795       1.91270607
        50    2        7.23178033       8.99717436       2.74034356
        51    2        4.14783659       8.56105050       1.98131758
        52    2        0.89814298       7.09321288       1.75075346
        53    2        0.90686071       6.58400371       6.58770424
        54    2        4.54736743       5.91715971       3.11309656
        55    2        7.35732081       5.84666307       8.10463541
        56    2        3.56820864       5.33232280       8.15944380
        57    2        7.95189503       7.09665585       0.73293058
        58    2        0.34247830       1.54496665       5.27330220
        59    2        2.55584626       3.05972963       2.82920721
        60    2        5.12108024       1.52121157       4.34856289
        61    2        8.47629493       6.70513378       5.37372562
        62    2        0.68666858       9.52611720       8.30244851
        63    2        5.36028194       2.85298933       1.51117674
        64    2        3.38164826       7.49282520       5.36527819
        65    2        8.92772265       4.28420521       1.15871471
        66    2        9.41646964       4.06771948       6.12914655
        67    2        8.40057671       1.99180839       8.04255735
        68    2        1.91408326       4.40119664       0.68281084
        69    2        7.52980203       2.45089820       0.07789526
        70    2        6.07727064       4.31190182       5.88944450
        71    2        3.05185839       4.10235674       5.47213229
        72    2        7.52180368       1.51450507       5.54934198
        73    2        5.61947096       0.57725505       9.87882959
        74    2        5.04133518       3.00597811       7.92435222
        75    2        9.09636180       9.40239189       0.33609575
        76    2        8.91504705       2.06852080       3.00170220
        77    2        0.11028066       3.04855177      10.12305069
        78    2        5.32611328       7.56534121       7.72362117
        79    2        9.69578498       8.36588231       3.73316427
        80    2        3.36890080       0.84537810       7.14622585
