 # Ca4 F8
 
          12  atoms
           2  atom types
 
      0.00000000       3.64279300  xlo xhi
      0.00000000       6.01346200  ylo yhi
      0.00000000       7.08072800  zlo zhi
 
Masses
 
           1   40.07800000    # Ca
           2   18.99840320    # F 
 
Atoms # atomic
 
         1    1        0.91069825       4.51899642       4.28769236
         2    1        2.73209475       1.49446558       2.79303564
         3    1        0.91069825       1.51226542       6.33339964
         4    1        2.73209475       4.50119658       0.74732836
         5    2        0.91069825       5.92117340       2.40324157
         6    2        2.73209475       0.09228860       4.67748643
         7    2        0.91069825       2.91444240       1.13712243
         8    2        2.73209475       3.09901960       5.94360557
         9    2        2.73209475       0.85002089       0.55033542
        10    2        0.91069825       5.16344111       6.53039258
        11    2        2.73209475       3.85675189       2.99002858
        12    2        0.91069825       2.15671011       4.09069942
