 # Na2 V4 O10
 
          16  atoms
           3  atom types
 
      0.00000000       3.71284400  xlo xhi
      0.00000000       6.52949700  ylo yhi
      0.00000000      11.32932000  zlo zhi
 
Masses
 
           1   22.98976928    # Na
           2   50.94150000    # V 
           3   15.99900000    # O 
 
Atoms # atomic
 
         1    1        1.85642200       2.65725716       0.00000000
         2    1        0.00000000       3.87223984       5.66466000
         3    2        0.00000000       0.52211817       1.71321977
         4    2        1.85642200       6.00737883       3.95144023
         5    2        1.85642200       6.00737883       7.37787977
         6    2        0.00000000       0.52211817       9.61610023
         7    3        0.00000000       6.42956958       0.00000000
         8    3        0.00000000       2.17789414       1.52128976
         9    3        1.85642200       0.05416218       2.05211372
        10    3        0.00000000       6.47533482       3.61254628
        11    3        1.85642200       4.35160286       4.14337024
        12    3        1.85642200       0.09992742       5.66466000
        13    3        1.85642200       4.35160286       7.18594976
        14    3        0.00000000       6.47533482       7.71677372
        15    3        1.85642200       0.05416218       9.27720628
        16    3        0.00000000       2.17789414       9.80803024
