 # Na4 V8 O20
 
          32  atoms
           3  atom types
 
      0.00000000       3.67515800  xlo xhi
      0.00000000       9.94142400  ylo yhi
      0.00000000      12.22197700  zlo zhi
 
Masses
 
           1   22.98976928    # Na
           2   50.94150000    # V 
           3   15.99900000    # O 
 
Atoms # atomic
 
         1    1        0.91878950       1.57151048       8.92596646
         2    1        2.75636850       3.39920152       2.81497796
         3    1        0.91878950       6.54222248       9.40699904
         4    1        2.75636850       8.36991352       3.29601054
         5    2        0.91878950       0.67025081       1.07362735
         6    2        2.75636850       1.21662153       6.06740493
         7    2        0.91878950       3.75409047      12.17839343
         8    2        2.75636850       4.30046119       7.18461585
         9    2        0.91878950       5.64096281       5.03736115
        10    2        2.75636850       6.18733353       0.04358357
        11    2        0.91878950       8.72480247       6.15457207
        12    2        2.75636850       9.27117319      11.14834965
        13    3        2.75636850       0.14198342       9.71260957
        14    3        2.75636850       0.56019924       0.50679650
        15    3        0.91878950       0.71361530       6.60876518
        16    3        2.75636850       2.11591280       4.68371825
        17    3        0.91878950       2.37991726       1.43951667
        18    3        2.75636850       2.59079474       7.55050517
        19    3        0.91878950       2.85479920      10.79470675
        20    3        2.75636850       4.25709670       0.49777668
        21    3        0.91878950       4.41051276       6.61778500
        22    3        0.91878950       4.82872858       3.60162107
        23    3        2.75636850       5.11269542       8.62035593
        24    3        2.75636850       5.53091124       5.60419200
        25    3        0.91878950       5.68432730      11.72420032
        26    3        2.75636850       7.08662480       1.42727025
        27    3        0.91878950       7.35062926       4.67147183
        28    3        2.75636850       7.56150674      10.78246033
        29    3        0.91878950       7.82551120       7.53825875
        30    3        2.75636850       9.22780870       5.61321182
        31    3        0.91878950       9.38122476      11.71518050
        32    3        0.91878950       9.79944058       2.50936743
