 # Na2 V4 O10
 
          16  atoms
           3  atom types
 
      0.00000000       3.64389114  xlo xhi
      0.00000000       5.01135500  ylo yhi
      0.00000000      11.50250076  zlo zhi
 
Masses
 
           1   15.99900000    # O 
           2   22.98976928    # Na
           3   50.94150000    # V 
 
Atoms # atomic
 
         1    1        2.73292091       4.63914763       4.37846234
         2    1        0.91097701       2.41249952       0.81631764
         3    1        2.73292091       2.59885818       6.56757435
         4    1        0.91097701       2.41249952       4.93492883
         5    1        2.73292091       2.35282646       2.87562323
         6    1        0.91097701       0.37221002       7.12404083
         7    1        2.73292091       4.63914763       1.37279425
         8    1        0.91097701       0.37221002      10.12970893
         9    1        2.73292091       2.59885818      10.68617541
        10    1        0.91097701       2.65852132       8.62687994
        11    2        0.91097701       0.62310912       2.87562323
        12    2        2.73292091       4.38824853       8.62687994
        13    3        0.91097701       2.00646646       6.90122555
        14    3        2.73292091       3.00489120       4.60127763
        15    3        0.91097701       2.00646646      10.35252421
        16    3        2.73292091       3.00489120       1.14997896
