 # Cu6 Mo4 O18
 
          28  atoms
           3  atom types
 
      0.00000000       7.43041508  xlo xhi
      0.00000000       7.13159919  ylo yhi
      0.00000000       7.29269201  zlo zhi
      3.14936457       0.14690975       3.47968952  xy xz yz
 
Masses
 
           1   63.54600000    # Cu
           2   95.96000000    # Mo
           3   15.99900000    # O 
 
Atoms # atomic
 
         1    1        2.01007405       5.26165038       6.64562603
         2    1        8.71661535       5.34963833       0.64706598
         3    1        2.70920725       6.26326739       3.44651166
         4    1        8.01748215       4.34802132       3.84618035
         5    1        7.29009424       6.91207649       5.36434380
         6    1        3.43659516       3.69921222       1.92834821
         7    2        4.11552799       8.42081383       5.94255218
         8    2        6.61116141       2.19047487       1.35013983
         9    2        4.82804036       3.65160809       5.17086139
        10    2        5.89864904       6.95968061       2.12183062
        11    3        8.84447354       5.81096235       4.85206865
        12    3        1.88221586       4.80032636       2.44062336
        13    3        2.92388722       4.41535475       0.13500231
        14    3        7.80280217       6.19593395       7.15768970
        15    3        1.07349739       3.04971465       5.81023358
        16    3        9.65319201       7.56157405       1.48245843
        17    3        3.44941198       7.74597746       4.42942798
        18    3        7.27727741       2.86531125       2.86326403
        19    3        3.93583232       3.16870800       3.69669475
        20    3        6.79085707       7.44258071       3.59599726
        21    3        3.76515368       4.72201569       6.13593979
        22    3        6.96153572       5.88927301       1.15675222
        23    3        6.27805252       4.64231236       4.78096491
        24    3        4.44863688       5.96897634       2.51172710
        25    3        5.77591480       7.81855121       6.12729066
        26    3        4.95077460       2.79273749       1.16540135
        27    3        8.49457972       9.28901525       6.06934293
        28    3        2.23210968       1.32227346       1.22334908
