 # Cu36 B24 O72
 
         132  atoms
           3  atom types
 
      0.00000000       8.59992400  xlo xhi
      0.00000000       9.30717059  ylo yhi
      0.00000000      18.08244208  zlo zhi
      0.00000000       0.00000000      -1.52424442  xy xz yz
 
Masses
 
           1   63.54600000    # Cu
           2   10.81000000    # B 
           3   15.99900000    # O 
 
Atoms # atomic
 
         1    1        6.77895889       1.19349995       1.68264357
         2    1        2.47899689       1.93585023      16.39979851
         3    1        1.80597544       6.45938114      16.33692586
         4    1        6.10593744       5.97713033       1.74551622
         5    1        4.20199167       2.42369433       7.98169843
         6    1        8.50195367       0.70564655      10.10074365
         7    1        4.39876653       5.35925902      10.09920664
         8    1        0.09880453       7.07725244       7.98323544
         9    1        2.11453211       6.86670980       4.72114480
        10    1        6.41449411       5.56980167      13.36129728
        11    1        6.48558968       0.91622954      13.36180358
        12    1        2.18562768       2.21311134       4.72063849
        13    1        7.78730858       6.64961575       4.59024600
        14    1        3.48734658       5.78689572      13.49219607
        15    1        0.81179843       1.13452572      13.49787396
        16    1        5.11176043       1.99481516       4.58456812
        17    1        1.52268534       1.35673844       0.94475335
        18    1        5.82264734       1.77260244      17.13768873
        19    1        7.07803845       6.33729046      17.05349688
        20    1        2.77807645       6.09922101       1.02894520
        21    1        0.87932503       3.19072647       7.87989428
        22    1        5.17928703      -0.06138559      10.20254780
        23    1        7.72125257       4.59335823      10.20448262
        24    1        3.42129057       7.84315324       7.87795946
        25    1        3.60884631       0.00901161       2.68565854
        26    1        7.90880831       3.12032927      15.39678353
        27    1        4.99333947       7.74222834      15.38535543
        28    1        0.69337747       4.69428313       2.69708665
        29    1        4.95233503       6.79039934       4.85475597
        30    1        0.65237303       5.64611213      13.22768611
        31    1        3.64733957       0.99183436      13.23038039
        32    1        7.94730157       2.13750652       4.85206168
        33    1        6.34703631       4.07660935       6.58311195
        34    1        2.04707431      -0.94726848      11.49933013
        35    1        2.25012711       3.69929810      11.48609378
        36    1        6.55008911       8.73721337       6.59634829
        37    2        6.96030549       1.83769320       8.62908602
        38    2        2.66034349       1.29164768       9.45335606
        39    2        1.64126970       5.94532297       9.45129466
        40    2        5.94123170       6.49118850       8.63114742
        41    2        6.52208776      -0.20023016       3.74548856
        42    2        2.22212576       3.32957104      14.33695352
        43    2        2.07927242       7.98730526      14.35950233
        44    2        6.37923442       4.44920620       3.72293975
        45    2        0.51812822       8.89053574       3.10712410
        46    2        4.81809022       3.54597572      14.97531797
        47    2        8.08172698      -1.11493147      14.97097819
        48    2        3.78176498       4.24427235       3.11146389
        49    2        0.73805408       4.40965268       5.64862942
        50    2        5.03801608       8.02685879      12.43381266
        51    2        7.86232572       3.37344462      12.43310744
        52    2        3.56236372      -0.24410374       5.64933464
        53    2        8.56800968       1.18680107      17.76194887
        54    2        4.26804768       1.94253981       0.32049320
        55    2        0.01312348       6.47252746       0.22684424
        56    2        4.31308548       5.96398401      17.85559784
        57    2        3.30211282       4.66442093       6.31261669
        58    2        7.60207482       7.77209054      11.76982538
        59    2        5.29822398       3.11855665      11.76789056
        60    2        0.99826198       0.01078423       6.31455152
        61    3        7.82816682       0.12798988       2.98647805
        62    3        3.52820482       3.00135100      15.09596403
        63    3        0.77206678       7.65885474      15.11373907
        64    3        5.07203738       4.77765673       2.96870301
        65    3        0.64750548       5.81360208       5.44668471
        66    3        4.94746748       6.62290939      12.63575737
        67    3        7.95380311       1.96834485      12.63026031
        68    3        3.65384111       1.16099603       5.45218177
        69    3        1.59430551       0.16766232       2.47796361
        70    3        5.89426751       2.96167856      15.60447846
        71    3        7.00359751       7.59505087      15.58513025
        72    3        2.70363551       4.84146060       2.49731183
        73    3        6.36482955       7.69710815       3.93132181
        74    3        2.06486755       4.73940332      14.15112026
        75    3        2.23656503       0.08677142      14.15593019
        76    3        6.53652703       3.04256946       3.92651188
        77    3        5.50500055       0.39319618       2.86680845
        78    3        1.20503855       2.73614470      15.21563363
        79    3        3.08768231       7.39988251      15.25098480
        80    3        7.38764431       5.03662895       2.83145728
        81    3        8.22429652       2.30164252       9.00431477
        82    3        3.92433452       0.82769836       9.07812730
        83    3        0.37721847       5.48119661       9.07904951
        84    3        4.67718047       6.95531485       9.00339257
        85    3        6.70845672       0.65862622       9.32399427
        86    3        2.40849472       2.47071466       8.75844781
        87    3        1.89258527       7.12340051       8.75653107
        88    3        6.19254727       5.31311096       9.32591101
        89    3        6.54660615       0.62143697       5.03022798
        90    3        2.24664415       2.50790391      13.05221409
        91    3        2.05649983       7.16326170      13.07060394
        92    3        6.35646183       5.27324977       5.01183814
        93    3        4.36125366       4.05926972       6.93776288
        94    3        0.06129166      -0.92992884      11.14467920
        95    3        4.23883374       3.72342343      11.14236464
        96    3        8.53879574       8.71308804       6.94007743
        97    3        8.29068793       3.81284256       6.50087300
        98    3        3.99072593      -0.68350168      11.58156908
        99    3        0.31025946       3.97338662      11.58191265
       100    3        4.61022146       8.46312485       6.50052943
       101    3        0.64527810       7.77072785       3.87302402
       102    3        4.94524010       4.66578362      14.20941806
       103    3        7.95415571       0.01212713      14.21368551
       104    3        3.65419371       3.11721375       3.86875656
       105    3        7.72962889       2.00148145      17.07743803
       106    3        3.42966689       1.12785943       1.00500405
       107    3        0.87008011       5.72849488       0.97079207
       108    3        5.17004211       6.70801659      17.11165001
       109    3        6.13173721       2.43891574       7.74304636
       110    3        1.83177521       0.69042514      10.33939572
       111    3        2.47005297       5.34209200      10.33653869
       112    3        6.77001497       7.09441947       7.74590338
       113    3        3.46483198       5.80958428       5.58080218
       114    3        7.76479398       6.62692719      12.50163990
       115    3        5.13507482       1.97260420      12.50001248
       116    3        0.83511282       1.15673667       5.58242960
       117    3        1.33169823       1.05332339      17.54933552
       118    3        5.63166023       2.07601749       0.53310656
       119    3        7.28700800       6.76494320       0.53695812
       120    3        2.98704600       5.67156827      17.54548396
       121    3        2.02031995       4.09791688       6.43865132
       122    3        6.32028195      -0.96857600      11.64379076
       123    3        6.58013725       3.68403731      11.64107840
       124    3        2.28017525       8.75247416       6.44136368
       125    3        0.77221298       3.59312474       4.35249806
       126    3        5.07217498      -0.46378386      13.72994402
       127    3        7.82364326       4.19230349      13.72576698
       128    3        3.52368126       8.24420798       4.35667510
       129    3        8.27542307       1.83239671       0.72606430
       130    3        3.97546107       1.29694417      17.35637778
       131    3        0.27670255       5.58390148      17.08895654
       132    3        4.57666455       6.85260999       0.99348553
