 # Tb8 Ti8 O28
 
          44  atoms
           3  atom types
 
      0.00000000       5.38084200  xlo xhi
      0.00000000       7.54996100  ylo yhi
      0.00000000      13.10771100  zlo zhi
      0.00000000       0.00000000       1.92694600  xy xz yz
 
Masses
 
           1   158.92535000    # Tb
           2   47.86700000    # Ti
           3   15.99900000    # O 
 
Atoms # atomic
 
         1    1        1.20916129       2.88408503       1.51555287
         2    1        4.10932213       2.85341457       4.82427993
         3    1        0.78247128       6.58793352       0.83268045
         4    1        3.89958229       6.59282197      11.59215813
         5    1        3.99814317       6.58975396       5.57409343
         6    1        1.41890113       6.62349243       8.28343107
         7    1        1.30772217       2.88715304       7.53361757
         8    1        3.47289228       2.88897348      12.27503055
         9    2        1.12568829       4.70368270      10.86938584
        10    2        4.00541269       4.75948602       8.23692492
        11    2        3.99871354       8.52097932       8.16947263
        12    2        1.31499169       4.71742098       4.87078608
        13    2        3.81610929       4.77322430       2.23832516
        14    2        1.18655099       8.61437892      10.76701462
        15    2        1.30829254       0.95592768       4.93823837
        16    2        3.87697199       0.86252808       2.34069638
        17    3        5.25339676       1.34901016       6.23352926
        18    3        0.30720841       1.47464609       3.51177861
        19    3        3.01174336       5.29652665       9.66992542
        20    3        0.43256051       4.50239041       8.89827447
        21    3        2.23683754       4.93570682      12.41651518
        22    3        3.39253479       2.83820555       2.55637066
        23    3        4.90100003       4.47103071      11.59552681
        24    3        1.92057317       2.84701221       5.36291509
        25    3        2.59032120       5.13499192       6.93677106
        26    3        0.32132236       4.18038035       3.43778558
        27    3        5.28074220       4.34191508       6.17093994
        28    3        4.92725854       4.54120018       0.69119582
        29    3        2.35726079       8.30176744      12.20431445
        30    3        0.70211379       6.63870145      10.55134034
        31    3        4.61099417       6.62989479       7.74479591
        32    3        4.45809755       6.59684505       2.41871348
        33    3        0.90443883       6.61550665       5.02472304
        34    3        5.07649620       8.74506080      11.89368791
        35    3        2.21057903       5.00587629       1.51218419
        36    3        0.41904383       8.78877907       8.91653352
        37    3        3.12298151       4.97451659       4.20943653
        38    3        2.56297576       8.12789684       6.87418174
        39    3        2.99762941       8.00226091       9.59593239
        40    3        3.59485983       2.86140035       8.08298796
        41    3        5.04768179       1.17513956       0.90339655
        42    3        1.76767655       2.88006195      10.68899752
        43    3        2.38607520       0.73184620       1.21402309
        44    3        3.10946483       0.68812793       4.19117748
