 # Mn4 H32 C8 N4 Cl12
 
          60  atoms
           5  atom types
 
      0.00000000      13.39437700  xlo xhi
      0.00000000       6.49826900  ylo yhi
      0.00000000       8.88194200  zlo zhi
      0.00000000       0.00000000       1.59399300  xy xz yz
 
Masses
 
           1   54.93804500    # Mn
           2   1.00800000    # H 
           3   12.01100000    # C 
           4   14.00700000    # N 
           5   35.45000000    # Cl
 
Atoms # atomic
 
         1    1        3.40814565       1.39140000       7.07714915
         2    1        3.28904285       4.64053450       7.07714915
         3    1       10.10533415       3.45172750       1.80479285
         4    1        9.98623135       6.70086200       1.80479285
         5    2        5.61687842       3.00555882       1.14949205
         6    2        0.56003230       3.89137035       0.99516831
         7    2        7.47678142       7.56056020       6.10892865
         8    2        1.20475724       0.93814448       3.19105971
         9    2       12.31406692       1.83756868       7.73244994
        10    2        6.13715620       0.64223585       0.99516831
        11    2        2.17634516       4.18524375       1.70433809
        12    2        8.87353366       7.15615275       7.17760391
        13    2        0.25012660       2.24268957       6.80103622
        14    2       12.18961976       7.15411752       5.69088229
        15    2       12.34202098       2.20033752       4.78760655
        16    2       10.88206068       1.88396107       5.76549948
        17    2        2.51231632       6.20830092       3.11644252
        18    2        5.64483248       2.64278998       4.09433545
        19    2        7.77749858       5.08670318       7.73244994
        20    2       11.21803184       3.90701825       7.17760391
        21    2        0.77959292       3.78083630       2.77301335
        22    2        1.08031008       6.25469332       1.14949205
        23    2       13.14425040       5.84957243       2.08090578
        24    2       12.61478408       4.31142570       6.10892865
        25    2        1.05235602       5.89192448       4.09433545
        26    2        7.90194574       3.90498302       5.69088229
        27    2        4.52084334       0.93610925       1.70433809
        28    2        6.94731510       2.60043793       2.08090578
        29    2        7.25722080       7.45002615       7.88677369
        30    2        7.74954452       5.44947202       4.78760655
        31    2        9.20950482       5.13309557       5.76549948
        32    2        5.49243126       4.18727898       3.19105971
        33    2        5.91759558       0.53170180       2.77301335
        34    2       12.83434470       4.20089165       7.88677369
        35    2        4.18487218       2.95916642       3.11644252
        36    2        6.44706190       5.49182407       6.80103622
        37    3       12.29660065       3.80232574       7.02343116
        38    3        5.59941215       1.04080176       1.85851083
        39    3        1.09777635       4.28993626       1.85851083
        40    3       11.96282617       1.72557609       5.69784573
        41    3        5.26563767       3.11755141       3.18409627
        42    3        8.12873933       4.97471059       5.69784573
        43    3        1.43155083       6.36668591       3.18409627
        44    3        7.79496485       7.05146024       7.02343116
        45    4       12.61593599       2.35391036       6.88183524
        46    4        5.91874749       2.48921714       2.00010675
        47    4        0.77844101       5.73835164       2.00010675
        48    4        7.47562951       5.60304486       6.88183524
        49    5       11.15589532       5.09852279       3.44270289
        50    5       11.96141976       1.77698568       1.78066950
        51    5        4.45870682       6.24287371       5.43923910
        52    5        8.13014574       5.02612018       1.78066950
        53    5        2.29307716       2.94100991       8.83130604
        54    5       11.10129984       5.15125209       0.05063595
        55    5        5.26423126       3.06614182       7.10127250
        56    5        8.99026566       1.90211759       0.05063595
        57    5        4.40411134       6.19014441       8.83130604
        58    5        8.93567018       1.84938829       3.44270289
        59    5        1.43295724       6.31527632       7.10127250
        60    5        2.23848168       2.99373921       5.43923910
