 # Zn2 F4
 
           6  atoms
           2  atom types
 
      0.00000000       4.80252700  xlo xhi
      0.00000000       4.80252700  ylo yhi
      0.00000000       3.18503300  zlo zhi
 
Masses
 
           1   65.38000000    # Zn
           2   18.99840320    # F 
 
Atoms # atomic
 
         1    1        2.40126350       2.40126350       1.59251650
         2    1        0.00000000       0.00000000       0.00000000
         3    2        3.34174236       3.34174236       0.00000000
         4    2        0.94047886       3.86204814       1.59251650
         5    2        1.46078464       1.46078464       0.00000000
         6    2        3.86204814       0.94047886       1.59251650
