 # Zn4 F8
 
          12  atoms
           2  atom types
 
      0.00000000       4.76176700  xlo xhi
      0.00000000       5.24874900  ylo yhi
      0.00000000       5.78271800  zlo zhi
 
Masses
 
           1   65.38000000    # Zn
           2   18.99840320    # F 
 
Atoms # atomic
 
         1    1        2.38088350       3.93656175       3.82311100
         2    1        0.00000000       1.31218725       4.85096600
         3    1        2.38088350       1.31218725       1.95960700
         4    1        0.00000000       3.93656175       0.93175200
         5    2        3.47488042       0.42321713       3.54905065
         6    2        1.09399692       4.82553187       5.12502635
         7    2        3.66777008       3.04759163       5.12502635
         8    2        1.28688658       2.20115737       3.54905065
         9    2        3.47488042       3.04759163       2.23366735
        10    2        1.09399692       2.20115737       0.65769165
        11    2        3.66777008       0.42321713       0.65769165
        12    2        1.28688658       4.82553187       2.23366735
