 # Sr2 Cu1 O3
 
           6  atoms
           3  atom types
 
      0.00000000       6.88268143  xlo xhi
      0.00000000       4.91213840  ylo yhi
      0.00000000       2.64670670  zlo zhi
