 # Ni8 O12
 
          20  atoms
           2  atom types
 
      0.00000000       2.90275800  xlo xhi
      0.00000000       4.85327800  ylo yhi
      0.00000000      14.57660900  zlo zhi
     -1.45137900       0.00000000       0.00000000  xy xz yz
 
Masses
 
           1   58.69340000    # Ni
           2   15.99900000    # O 
 
Atoms # atomic
 
         1    1        1.45137610       3.52693536       0.68141274
         2    1       -0.00000145       1.32633778      13.89519626
         3    1        1.45137610       3.52693536       6.60689176
         4    1       -0.00000145       1.32633778       7.96971724
         5    1        0.00000145       3.94107042       9.26159837
         6    1        1.45137755       0.91220757       5.31502521
         7    1        1.45137755       0.91220757       1.97327929
         8    1        0.00000145       3.94107042      12.60331513
         9    2        1.45137610       0.00000000       7.28830450
        10    2        1.45137610       0.00000000       0.00000000
        11    2       -0.00000145       0.30814918      12.29367880
        12    2        1.45138045       4.54512882       2.28294477
        13    2        1.45138045       4.54512882       5.00535973
        14    2       -0.00000145       0.30814918       9.57124927
        15    2        1.45137610       2.72045645      13.44864184
        16    2       -0.00000145       2.13282640       1.12796716
        17    2       -0.00000145       2.13282640       6.16033734
        18    2        1.45137610       2.72045645       8.41627166
        19    2        0.00000000       3.15742619      10.93245675
        20    2        1.45137465       1.69584696       3.64415225
