 # Ni1 O1
 
           2  atoms
           2  atom types
 
      0.00000000       2.92483936  xlo xhi
      0.00000000       2.53298556  ylo yhi
      0.00000000       3.44226200  zlo zhi
     -1.46241904       0.00000000       0.00000000  xy xz yz
 
Masses
 
           1   58.69340000    # Ni
           2   15.99900000    # O 
 
Atoms # atomic
 
         1    1        0.00000000       0.00000000       0.00000000
         2    2        0.00000000       0.00000000       1.72113100
