 # Si2
 
           2  atoms
           1  atom types
 
      0.00000000       3.86697465  xlo xhi
      0.00000000       3.34889828  ylo yhi
      0.00000000       3.15737158  zlo zhi
