 # Si2
 
           2  atoms
           1  atom types
 
      0.00000000       2.63942156  xlo xhi
      0.00000000       2.28580637  ylo yhi
      0.00000000       4.76410400  zlo zhi
     -1.31971034       0.00000000       0.00000000  xy xz yz
 
Masses
 
           1   28.08500000    # Si
 
Atoms # atomic
 
         1    1       -0.00000103       1.52387168       1.19102600
         2    1        1.31971225       0.76193470       3.57307800
