 # Si6
 
           6  atoms
           1  atom types
 
      0.00000000       5.83009687  xlo xhi
      0.00000000       5.49666804  ylo yhi
      0.00000000       4.76025416  zlo zhi
     -1.94336562      -1.94336562      -2.74833402  xy xz yz
 
Masses
 
           1   28.08500000    # Si
 
Atoms # atomic
 
         1    1        2.91504844       0.00000000       2.38012708
         2    1        2.91504844       2.06125052       1.19006354
         3    1        0.97168281      -0.68708350       3.57019062
         4    1       -0.97168281       0.68708351       3.57019062
         5    1       -0.97168281       2.74833402       2.38012708
         6    1        0.97168281       3.43541753       1.19006354
