 # Si100
 
         100  atoms
           1  atom types
 
      0.00000000      12.40890494  xlo xhi
      0.00000000      12.52652695  ylo yhi
      0.00000000      12.32124700  zlo zhi
      1.97613303      -1.70489223      -2.07437609  xy xz yz
 
Masses
 
           1   28.08500000    # Si
 
Atoms # atomic
 
         1    1        2.33351273      10.62063701       6.03581493
         2    1        0.81651073       4.25540577       6.74810980
         3    1        3.84621288       3.63258443       8.58819304
         4    1        7.65235785       2.75911325       9.00412310
         5    1        2.14160870      -0.76836167       4.89841931
         6    1        4.99121911       0.35246895       2.54070385
         7    1       11.02859375       6.33920700       9.62682241
         8    1        7.21702983      -0.95278953       7.72609054
         9    1        2.82560268       7.17511873       8.82005439
        10    1        7.41152338       3.59247504       6.83567838
        11    1        9.54120965       3.07569732       5.86597788
        12    1       10.80405921      -0.61951870       5.71989360
        13    1        8.99923066      10.21139307      11.49783321
        14    1        6.25059823       8.78655482       9.51485788
        15    1        5.43637984       8.90636537       0.38568078
        16    1        8.17379277       0.50196959       4.92259027
        17    1        4.17352013       3.99348938       6.06870207
        18    1        3.78165468       1.75761247      10.17067227
        19    1        6.52988196       1.81315648       1.51054755
        20    1        1.89323224       6.44970397       0.18096277
        21    1        4.08361939      -0.41679258       9.44039677
        22    1       12.44143463      12.34523186       0.83552742
        23    1       11.13222941       4.86311406       5.81065252
        24    1       11.60413276       8.50108927       6.93997490
        25    1        2.54115559       0.48429804       6.94611100
        26    1        7.75845118       9.48152451       0.19473546
        27    1        9.28640739       0.39015618      11.10047029
        28    1        1.33563507      -0.02591019       0.79127418
        29    1       13.40894123      11.49563008       2.99692290
        30    1        4.12847312       4.55610098      12.28880996
        31    1        1.17110510       8.80966201       8.19991420
        32    1        4.90617529       8.31821126       5.78656658
        33    1        6.16079498       1.58446511      10.51909521
        34    1       13.41253083       8.43347268       1.17493157
        35    1       12.72320520       4.67484905       0.26375687
        36    1       10.17781972       2.22097850       1.18498114
        37    1        2.55255434       8.35502179       5.36235985
        38    1        2.45348379       7.93380278      11.04993445
        39    1        8.54750848       8.54941843       9.92824558
        40    1        9.80067082       7.00860218       1.82921874
        41    1        7.36810011       5.86082969       3.76522461
        42    1        8.45376033       1.76376918       2.88950689
        43    1        5.38021188       9.54809043      11.63761049
        44    1        5.53654523       9.92533489       4.20071009
        45    1        7.36452191       8.48483603       2.49126460
        46    1        5.74238669       9.79729052       7.46122538
        47    1       11.44784531       1.66122894       5.59063756
        48    1       11.21631585       8.75647774       4.63942830
        49    1       11.60570582      10.79777306       9.78017364
        50    1       11.86007672       3.61306620       2.16908111
        51    1        7.65639589       4.55862095      10.49294016
        52    1        2.13467778       4.05401235       4.87698872
        53    1        5.75442280       0.27505222       4.91488468
        54    1        9.00632842       6.45371003      10.81139979
        55    1        4.88465450      -0.57366240       7.07439909
        56    1       11.05860241       8.83512177       0.83761587
        57    1       12.49429080       7.30684434       3.20152534
        58    1        0.64755595       1.97524736       7.29574043
        59    1        3.96872081       5.44295983       0.86248248
        60    1        8.20852442      10.94103469       2.05242515
        61    1        9.50779855       9.24222320       7.87704627
        62    1        4.91278215      -1.17126087      11.62510369
        63    1       -0.50647939       2.41027027       9.28553718
        64    1        8.70454152       3.98565842       0.37920942
        65    1       10.86903411       5.39374383       3.36498085
        66    1       10.44395435       5.53176776       0.00195329
        67    1       -0.82472193      -0.99342406      11.05260027
        68    1        8.92636398       7.99144682       4.43805748
        69    1        3.62833314       0.81698179       0.53698409
        70    1        2.12520796       9.37316622       3.10909899
        71    1        5.22058999       6.77705637       8.88113894
        72    1        0.55827292       2.49453570       3.88381575
        73    1        2.13187102      10.44380176       0.03764141
        74    1        7.26356023      -0.47080523      10.04549629
        75    1        7.61404257       5.93811127       1.40545803
        76    1        0.98605412       0.31842733       3.12765996
        77    1        7.90771000      10.19605172       4.32538608
        78    1        8.89793281       3.99876318       3.80459432
        79    1        5.32932706       6.03891961       5.07246641
        80    1       10.51161126       6.47238973       7.32204494
        81    1        2.07624831      -1.39341880       8.45461347
        82    1       -0.38797368      -1.36955010       8.35476948
        83    1        0.09949835       4.57258599      10.13098886
        84    1        4.36782505       8.83999509       2.47292196
        85    1        5.88904452       2.65397834       5.23727627
        86    1        1.90811741       5.01752807       8.69021814
        87    1        8.45477623       7.45932896       6.71070089
        88    1        6.67414972       5.94588501       7.08986348
        89    1       11.23945872      11.03984753       4.01029779
        90    1        2.21047692       1.19048532      12.03631040
        91    1        5.25720521       4.81352545      10.18807566
        92    1        9.68508634       1.57832071       9.06301644
        93    1        1.97819917       6.32634388       4.21020521
        94    1        6.48753108       3.58096382       3.09385711
        95    1        4.00267467       6.51987444       3.02650856
        96    1       -0.03581867       1.21070704      11.21625699
        97    1        9.55699051      -0.39850848       7.73887162
        98    1       12.11430185       8.47445957      10.09716630
        99    1       10.55032656      11.02755886       1.70498212
       100    1        3.20472913      10.20038555      10.59089407
