 # Si106
 
         106  atoms
           1  atom types
 
      0.00000000      10.17741100  xlo xhi
      0.00000000      10.17741100  ylo yhi
      0.00000000      24.22729500  zlo zhi
 
Masses
 
           1   28.08500000    # Si
 
Atoms # atomic
 
         1    1        1.87513709       3.22372547      23.53109945
         2    1        8.30227391       6.95368553      23.53109945
         3    1        6.96384259       8.31243097      12.80984305
         4    1        3.21356841       1.86498003      12.80984305
         5    1        8.30227391       3.22372547      23.53109945
         6    1        1.87513709       6.95368553      23.53109945
         7    1        3.21356841       8.31243097      12.80984305
         8    1        6.96384259       1.86498003      12.80984305
         9    1        6.95368553       1.87513709       0.69619555
        10    1        3.22372547       8.30227391       0.69619555
        11    1        1.86498003       6.96384259      11.41745195
        12    1        8.31243097       3.21356841      11.41745195
        13    1        3.22372547       1.87513709       0.69619555
        14    1        6.95368553       8.30227391       0.69619555
        15    1        8.31243097       6.96384259      11.41745195
        16    1        1.86498003       3.21356841      11.41745195
        17    1        3.84637947       2.99397041       2.69841189
        18    1        6.33103153       7.18344059       2.69841189
        19    1        8.93508497       8.08267591       9.41523561
        20    1        1.24232603       2.09473509       9.41523561
        21    1        6.33103153       2.99397041       2.69841189
        22    1        3.84637947       7.18344059       2.69841189
        23    1        1.24232603       8.08267591       9.41523561
        24    1        8.93508497       2.09473509       9.41523561
        25    1        7.18344059       3.84637947      21.52888311
        26    1        2.99397041       6.33103153      21.52888311
        27    1        2.09473509       8.93508497      14.81205939
        28    1        8.08267591       1.24232603      14.81205939
        29    1        2.99397041       3.84637947      21.52888311
        30    1        7.18344059       6.33103153      21.52888311
        31    1        8.08267591       8.93508497      14.81205939
        32    1        2.09473509       1.24232603      14.81205939
        33    1        2.59224765       1.82843295       4.43778631
        34    1        7.58516335       8.34897805       4.43778631
        35    1        7.68095315       6.91713845       7.67586119
        36    1        2.49645785       3.26027255       7.67586119
        37    1        7.58516335       1.82843295       4.43778631
        38    1        2.59224765       8.34897805       4.43778631
        39    1        2.49645785       6.91713845       7.67586119
        40    1        7.68095315       3.26027255       7.67586119
        41    1        8.34897805       2.59224765      19.78950869
        42    1        1.82843295       7.58516335      19.78950869
        43    1        3.26027255       7.68095315      16.55143381
        44    1        6.91713845       2.49645785      16.55143381
        45    1        1.82843295       2.59224765      19.78950869
        46    1        8.34897805       7.58516335      19.78950869
        47    1        6.91713845       7.68095315      16.55143381
        48    1        3.26027255       2.49645785      16.55143381
        49    1        1.19403421       3.25197796       5.69091891
        50    1        8.98337679       6.92543304       5.69091891
        51    1        6.28273971       8.34068346       6.42272859
        52    1        3.89467129       1.83672754       6.42272859
        53    1        8.98337679       3.25197796       5.69091891
        54    1        1.19403421       6.92543304       5.69091891
        55    1        3.89467129       8.34068346       6.42272859
        56    1        6.28273971       1.83672754       6.42272859
        57    1        6.92543304       1.19403421      18.53637609
        58    1        3.25197796       8.98337679      18.53637609
        59    1        1.83672754       6.28273971      17.80456641
        60    1        8.34068346       3.89467129      17.80456641
        61    1        3.25197796       1.19403421      18.53637609
        62    1        6.92543304       8.98337679      18.53637609
        63    1        8.34068346       6.28273971      17.80456641
        64    1        1.83672754       3.89467129      17.80456641
        65    1        1.93252751       0.00000000       1.30531820
        66    1        8.24488349       0.00000000       1.30531820
        67    1        7.02123301       5.08870550      10.80832930
        68    1        3.15617799       5.08870550      10.80832930
        69    1        0.00000000       1.93252751      22.92197680
        70    1        0.00000000       8.24488349      22.92197680
        71    1        5.08870550       7.02123301      13.41896570
        72    1        5.08870550       3.15617799      13.41896570
        73    1        1.32305325       0.00000000       3.58093956
        74    1        8.85435775       0.00000000       3.58093956
        75    1        6.41175875       5.08870550       8.53270794
        76    1        3.76565225       5.08870550       8.53270794
        77    1        0.00000000       1.32305325      20.64635544
        78    1        0.00000000       8.85435775      20.64635544
        79    1        5.08870550       6.41175875      15.69458706
        80    1        5.08870550       3.76565225      15.69458706
        81    1        1.21670949       5.08870550       0.59192127
        82    1        8.96070151       5.08870550       0.59192127
        83    1        6.30541499       0.00000000      11.52172623
        84    1        3.87199601       0.00000000      11.52172623
        85    1        5.08870550       1.21670949      23.63537373
        86    1        5.08870550       8.96070151      23.63537373
        87    1        0.00000000       6.30541499      12.70556877
        88    1        0.00000000       3.87199601      12.70556877
        89    1        2.69049019       5.08870550       2.50052334
        90    1        7.48692081       5.08870550       2.50052334
        91    1        7.77919569       0.00000000       9.61312416
        92    1        2.39821531       0.00000000       9.61312416
        93    1        5.08870550       2.69049019      21.72677166
        94    1        5.08870550       7.48692081      21.72677166
        95    1        0.00000000       7.77919569      14.61417084
        96    1        0.00000000       2.39821531      14.61417084
        97    1        1.18243196       5.08870550       4.28425794
        98    1        8.99497904       5.08870550       4.28425794
        99    1        6.27113746       0.00000000       7.82938956
       100    1        3.90627354       0.00000000       7.82938956
       101    1        5.08870550       1.18243196      19.94303706
       102    1        5.08870550       8.99497904      19.94303706
       103    1        0.00000000       6.27113746      16.39790544
       104    1        0.00000000       3.90627354      16.39790544
       105    1        5.08870550       5.08870550      12.11364750
       106    1        0.00000000       0.00000000       0.00000000
