 # Cd1 Cl2
 
           3  atoms
           2  atom types
 
      0.00000000       4.11812500  xlo xhi
      0.00000000       4.11812500  ylo yhi
      0.00000000       5.71755100  zlo zhi
 
Masses
 
           1   112.41100000    # Cd
           2   35.45000000    # Cl
 
Atoms # atomic
 
         1    1        2.05906250       2.05906250       2.85877550
         2    2        0.00000000       2.05906250       1.40966220
         3    2        2.05906250       0.00000000       4.30788880
