 # K1 Ta1 O3
 
           5  atoms
           3  atom types
 
      0.00000000       4.03083900  xlo xhi
      0.00000000       4.03083900  ylo yhi
      0.00000000       4.03083900  zlo zhi
 
Masses
 
           1   39.09830000    # K 
           2   180.94788000    # Ta
           3   15.99900000    # O 
 
Atoms # atomic
 
         1    1        2.01541950       2.01541950       2.01541950
         2    2        0.00000000       0.00000000       0.00000000
         3    3        0.00000000       2.01541950       0.00000000
         4    3        0.00000000       0.00000000       2.01541950
         5    3        2.01541950       0.00000000       0.00000000
