 # V4 Ni6 O16
 
          26  atoms
           3  atom types
 
      0.00000000       6.00482700  xlo xhi
      0.00000000       5.77402500  ylo yhi
      0.00000000       8.35516400  zlo zhi
