 # Cs8 Cu4 Cl16
 
          28  atoms
           3  atom types
 
      0.00000000       7.78238200  xlo xhi
      0.00000000       9.96156800  ylo yhi
      0.00000000      12.39000600  zlo zhi
 
Masses
 
           1   132.90545190    # Cs
           2   63.54600000    # Cu
           3   35.45000000    # Cl
 
Atoms # atomic
 
         1    1        1.94559550       1.33266853      11.12270663
         2    1        5.83678650       3.64811547       4.92770363
         3    1        1.94559550       6.31345253       7.46230237
         4    1        1.94559550       0.08869780       4.04871943
         5    1        5.83678650       9.87287020       8.34128657
         6    1        5.83678650       8.62889947       1.26729937
         7    1        1.94559550       5.06948180       2.14628357
         8    1        5.83678650       4.89208620      10.24372243
         9    2        1.94559550       7.29121031      11.34919594
        10    2        1.94559550       2.31042631       7.23581306
        11    2        5.83678650       7.65114169       5.15419294
        12    2        5.83678650       2.67035769       1.04081006
        13    3        4.01854190       2.81456135       7.93584840
        14    3        7.65503110       2.81456135       7.93584840
        15    3        4.01854190       7.79534535      10.64916060
        16    3        1.94559550       3.56546434       5.33649948
        17    3        0.12735090       7.14700665       4.45415760
        18    3        1.94559550       8.54624834       0.85850352
        19    3        3.76384010       2.16622265       1.74084540
        20    3        5.83678650       4.90558412       1.47605858
        21    3        7.65503110       7.79534535      10.64916060
        22    3        1.94559550       5.05598388      10.91394742
        23    3        0.12735090       2.16622265       1.74084540
        24    3        5.83678650       9.88636812       4.71894442
        25    3        3.76384010       7.14700665       4.45415760
        26    3        5.83678650       6.39610366       7.05350652
        27    3        5.83678650       1.41531966      11.53150248
        28    3        1.94559550       0.07519988       7.67106158
