 # Ru4 Cl12
 
          16  atoms
           2  atom types
 
      0.00000000       5.67555900  xlo xhi
      0.00000000       6.59305300  ylo yhi
      0.00000000      11.30811700  zlo zhi
 
Masses
 
           1   101.07000000    # Ru
           2   35.45000000    # Cl
 
Atoms # atomic
 
         1    1        4.25989864       4.91041357       0.00000000
         2    1        1.42211914       1.68263943       5.65405850
         3    1        1.41566036       4.91041357       0.00000000
         4    1        4.25343986       1.68263943       5.65405850
         5    2        2.83777950       3.58800537       5.65405850
         6    2        0.00000000       2.63153140       4.01167890
         7    2        2.83777950       0.21690485       0.00000000
         8    2        0.00000000       5.86154058       1.64864430
         9    2        0.00000000       2.63153140       7.29643810
        10    2        0.00000000       5.86154058       9.65947270
        11    2        2.83777950       3.96152160       1.64237960
        12    2        2.83777950       0.73151242       7.30270280
        13    2        0.00000000       3.00504763       0.00000000
        14    2        0.00000000       6.37614815       5.65405850
        15    2        2.83777950       3.96152160       9.66573740
        16    2        2.83777950       0.73151242       4.00541420
