 # Ru6 Cl18
 
          24  atoms
           2  atom types
 
      0.00000000       6.05994138  xlo xhi
      0.00000000       5.24806354  ylo yhi
      0.00000000      19.91745700  zlo zhi
     -3.02997007       0.00000000       0.00000000  xy xz yz
 
Masses
 
           1   101.07000000    # Ru
           2   35.45000000    # Cl
 
Atoms # atomic
 
         1    1        3.02997076       0.58265051       3.31958281
         2    1        4.04036620       2.33270651       9.95872850
         3    1        2.01957573       2.33270651      16.59787419
         4    1        0.00000028       2.33097990       3.31958281
         5    1        1.01128350       4.08257359       9.95872850
         6    1       -1.01128253       4.08257359      16.59787419
         7    2        0.95003263       3.98028358      15.25944100
         8    2        3.08805873       3.97928645      17.93867756
         9    2        2.90975364       0.58337474      17.93843856
        10    2        2.97188965       3.97928645       8.61792513
        11    2       -0.05796002       2.43516971       8.62027539
        12    2        4.99019516       0.68468861       1.97877944
        13    2        0.89207233       4.08067379       4.65801600
        14    2        3.97963045       2.43645548      15.25730983
        15    2        0.05796060       2.43516971      17.93632730
        16    2        2.08031150       2.43645548      11.29929286
        17    2        4.93211061       0.58408323      11.29953187
        18    2       -0.95003169       3.98028358      11.29718161
        19    2        1.06975244       0.68468861       4.66036626
        20    2        3.15018788       0.58337474       8.61816414
        21    2        4.09984754       2.22823331       4.66014717
        22    2        1.96009436       2.22823331       1.97901844
        23    2        1.12783697       0.58408323      15.25709074
        24    2       -0.89207137       4.08067379       1.98112970
