 # Tb12 Ga20 O48
 
          80  atoms
           3  atom types
 
      0.00000000      10.77623296  xlo xhi
      0.00000000      10.15992987  ylo yhi
      0.00000000       8.79875737  zlo zhi
     -3.59207765      -3.59207765      -5.07996493  xy xz yz
 
Masses
 
           1   158.92535000    # Tb
           2   69.72300000    # Ga
           3   15.99900000    # O 
 
Atoms # atomic
 
         1    1        4.49009707       4.44496932       5.49922336
         2    1        6.28613589       5.07996494       2.19968934
         3    1        0.89801941       5.07996494       6.59906803
         4    1       -2.69405824       5.71496055       5.49922336
         5    1        2.69405824       1.90498685       7.69891270
         6    1        2.69405824      -1.90498685       7.69891270
         7    1       -0.89801941       0.63499562       3.29953401
         8    1       -2.69405824       0.00000000       6.59906803
         9    1        2.69405824       0.00000000       2.19968934
        10    1        6.28613589      -0.63499562       3.29953401
        11    1        0.89801941       3.17497808       1.09984467
        12    1        0.89801941       6.98495179       1.09984467
        13    2       -4.49009707       3.17497809       7.69891270
        14    2        8.08217472       1.90498685       1.09984467
        15    2        4.49009707       0.63499562       5.49922336
        16    2       -2.69405824       7.61994740       2.19968934
        17    2       -0.89801941      -3.17497808       7.69891270
        18    2       -0.89801941       2.53998247       6.59906803
        19    2        0.89801941      -0.63499562       5.49922336
        20    2        6.28613589      -2.53998247       6.59906803
        21    2        4.49009707       2.53998247       2.19968934
        22    2        4.49009707       8.25494302       1.09984467
        23    2       -0.89801941       4.44496932       3.29953401
        24    2        2.69405824       5.71496055       3.29953401
        25    2        3.59207765      -2.53998247       4.39937868
        26    2       -1.79603883       5.07996493       0.00000000
        27    2        1.79603883       2.53998247       4.39937868
        28    2       -1.79603883      -2.53998247       4.39937868
        29    2        0.00000000       0.00000000       0.00000000
        30    2       -3.59207765       2.53998247       4.39937868
        31    2        3.59207765       5.07996493       0.00000000
        32    2        5.38811648       0.00000000       0.00000000
        33    3        1.67282697       7.28026539       3.31759786
        34    3       -1.28075169       1.32148684       7.96369370
        35    3       -1.28075169      -1.38392977       8.07184803
        36    3        2.31132596       5.14240786       1.56197301
        37    3        0.12321186       9.05323919       0.24671716
        38    3        0.48578899      -0.75936332       1.80869016
        39    3        1.31024984       0.59392918       4.15266153
        40    3        6.30629104       0.87116827       5.12628802
        41    3       -0.91817456      -0.87116827       5.12628802
        42    3        2.67390309       2.33509732       2.59068852
        43    3        8.49440514      -1.35329250       2.83740568
        44    3        2.67390309       8.69600081       1.08178082
        45    3        7.30736716      -1.77297380       5.23444235
        46    3        0.12321186       2.87966448       3.31759786
        47    3        4.90232749       0.75936332       1.80869016
        48    3       -0.51528713       5.01752201       1.56197301
        49    3       -4.10736478      -1.32148684       7.96369370
        50    3        7.66994430       1.35329250       2.83740568
        51    3       -0.87786427       1.46392906       1.08178082
        52    3        4.51025222       5.95113320       3.67246934
        53    3       -1.91925068       1.77297380       5.23444235
        54    3        4.07786664      -0.59392918       4.15266153
        55    3        1.67282697       1.10669068       0.24671716
        56    3       -4.10736478       1.38392977       8.07184803
        57    3        1.91925068      -2.20030045       5.48115951
        58    3        4.87282935       3.75847810       0.83506367
        59    3        4.87282935       6.46389470       0.72690934
        60    3        1.28075170      -0.06244293       7.23678436
        61    3        3.46886580      -3.97327425       8.55204021
        62    3        3.10628866       5.83932825       6.99006721
        63    3        2.28182782       4.48603576       4.64609584
        64    3       -2.71421339       4.20879667       3.67246934
        65    3        7.69944244       3.69603517       0.72690934
        66    3        1.91925068       3.97327426       8.55204021
        67    3       -0.48578899       5.67389412       4.64609584
        68    3        4.46994192      -2.74486761       6.20806885
        69    3        5.51132834       3.30699113       3.56431502
        70    3        4.46994192       3.61603588       7.71697655
        71    3       -4.07786664       3.72667244       5.96135169
        72    3        7.69944244       6.40145177       0.83506367
        73    3        4.10736479       0.06244293       7.23678436
        74    3       -1.31024984       4.32060162       6.99006721
        75    3        3.46886580       2.20030045       5.48115951
        76    3       -3.71528951       6.85293874       3.56431502
        77    3        0.91817456      -3.61603588       7.71697655
        78    3       -4.90232749       6.43325743       5.96135169
        79    3        0.91817456       2.74486761       6.20806885
        80    3       -0.87786426       7.82483255       2.59068852
