 # V2 Ag2 P4 S12
 
          20  atoms
           4  atom types
 
      0.00000000      10.82041900  xlo xhi
      0.00000000       5.89305600  ylo yhi
      0.00000000       7.24113200  zlo zhi
      0.00000000       0.00000000       1.88968600  xy xz yz
 
Masses
 
           1   50.94150000    # V 
           2   107.86820000    # Ag
           3   30.97376200    # P 
           4   32.06000000    # S 
 
Atoms # atomic
 
         1    1       10.08195786       4.41979200       0.00000000
         2    1        0.73846114       1.47326400       0.00000000
         3    2        4.72336176       1.47326400       0.00000000
         4    2        6.09705724       4.41979200       0.00000000
         5    3        2.68313930       4.46806423       1.11346887
         6    3        8.13727970       1.52153623       1.11346887
         7    3        8.13727970       3.31467777       6.12766313
         8    3        2.68313930       6.26120577       6.12766313
         9    4        9.95468810       0.47505693       1.51164423
        10    4        6.54051047       4.19434532       5.36857526
        11    4        2.46376612       0.54593908       1.54265076
        12    4        2.46376612       4.29027492       5.69848124
        13    4        4.27990853       7.14087332       5.36857526
        14    4        8.35665288       3.49246708       1.54265076
        15    4        8.35665288       7.23680292       5.69848124
        16    4        9.95468810       4.36115707       5.72948777
        17    4        0.86573090       7.30768507       5.72948777
        18    4        0.86573090       3.42158493       1.51164423
        19    4        4.27990853       3.58839668       1.87255674
        20    4        6.54051047       0.64186868       1.87255674
