 # Co4 Sb8 O24
 
          36  atoms
           3  atom types
 
      0.00000000       4.72599729  xlo xhi
      0.00000000      10.53992061  ylo yhi
      0.00000000       8.44858105  zlo zhi
      0.00142824       0.00212698       4.23825990  xy xz yz
 
Masses
 
           1   58.93319500    # Co
           2   121.76000000    # Sb
           3   15.99900000    # O 
 
Atoms # atomic
 
         1    1        0.00106349       2.11912995       4.22429052
         2    1        2.36371277       5.26996031       0.00000000
         3    1        0.00000000       0.00000000       0.00000000
         4    1        2.36477626       7.38909025       4.22429052
         5    2        4.72825909       9.86057528       5.62805606
         6    2        4.72726651       7.74155290       1.40379088
         7    2        0.00129342       4.91760523       2.82052499
         8    2        0.00228600       7.03662760       7.04479017
         9    2        2.36363413       2.47352252       1.40261653
        10    2        2.36458898       4.59276896       5.62711827
        11    2        2.36591838      12.30465799       7.04596452
        12    2        2.36496353      10.18541154       2.82146278
        13    3        1.46419123       1.46298765       2.91620517
        14    3        1.46671601      14.12192628       7.14041966
        15    3        3.26536128      13.31519286       5.53237588
        16    3        3.26283650       0.65625423       1.30816139
        17    3        0.90236537       8.85221559       7.14074915
        18    3        0.90127349       6.73293786       2.91637414
        19    3        3.82718714       5.92596492       1.30783190
        20    3        3.82827902       8.04524265       5.53220691
        21    3        1.43067418       4.24313275       1.55910115
        22    3        1.43155812       6.36214330       5.78367892
        23    3        0.93594311      11.62851624       5.78543623
        24    3        0.93501198       9.50937620       1.56131468
        25    3        1.43059147       7.13384949       0.10910498
        26    3        1.43185343       9.25280243       4.33342085
        27    3        0.93366200       1.86761998       0.10738147
        28    3        0.93482000       3.98680241       4.33158750
        29    3        3.79589051      12.91056053       8.34119958
        30    3        3.79473251      10.79137810       4.11699355
        31    3        3.29896104       7.64433102       8.33947607
        32    3        3.29769908       5.52537808       4.11516020
        33    3        3.29887833      10.53504776       6.88947990
        34    3        3.29799439       8.41603721       2.66490213
        35    3        3.79360940       3.14966427       2.66314482
        36    3        3.79454053       5.26880431       6.88726637
