 # Rb6 Co6 Br18
 
          30  atoms
           3  atom types
 
      0.00000000      13.05552585  xlo xhi
      0.00000000      11.30641713  ylo yhi
      0.00000000       6.23035600  zlo zhi
     -6.52776277       0.00000000       0.00000000  xy xz yz
 
Masses
 
           1   85.46780000    # Rb
           2   58.93319500    # Co
           3   79.90400000    # Br
 
Atoms # atomic
 
         1    1        8.69375300       0.00000000       1.27471838
         2    1       -4.34687640       7.52901101       1.27471838
         3    1        4.36177285       0.00000000       4.38989638
         4    1       -2.18088638       3.77740613       4.38989638
         5    1        2.18088648       3.77740613       1.27471838
         6    1        4.34687660       7.52901101       4.38989638
         7    2        0.00000000       0.00000000       6.15167283
         8    2        0.00000000       0.00000000       3.03649483
         9    2       -0.00000643       7.53761519       2.70299634
        10    2        6.52776950       3.76880194       5.81817434
        11    2       -0.00000643       7.53761519       5.81817434
        12    2        6.52776950       3.76880194       2.70299634
        13    3       -1.02336384       5.75217364       1.14272205
        14    3        2.05791653       7.54407116       1.14272205
        15    3        7.55112692       5.55424350       4.25790005
        16    3        1.03455263       9.31658948       4.25790005
        17    3       -1.03455238       9.31658948       1.14272205
        18    3        4.46984655       3.76234598       4.25790005
        19    3        1.02336400       5.75217364       4.25790005
        20    3        5.49321044       1.98982766       1.14272205
        21    3        7.56231546       1.98982766       4.25790005
        22    3        5.50439908       5.55424350       1.14272205
        23    3       -2.05791633       7.54407116       4.25790005
        24    3        8.58567940       3.76234598       1.14272205
        25    3        2.05614088       0.00000000       1.48984011
        26    3       -1.02807041       1.78067025       1.48984011
        27    3       10.99938497       0.00000000       4.60501811
        28    3       -5.49969236       9.52574689       4.60501811
        29    3        5.49969261       9.52574689       1.48984011
        30    3        1.02807046       1.78067025       4.60501811
