 # Rb6 Co6 Br18
 
          30  atoms
           3  atom types
 
      0.00000000      12.91575753  xlo xhi
      0.00000000      11.18537440  ylo yhi
      0.00000000       6.24363700  zlo zhi
     -6.45787830       0.00000000       0.00000000  xy xz yz
 
Masses
 
           1   85.46780000    # Rb
           2   58.93319500    # Co
           3   79.90400000    # Br
 
Atoms # atomic
 
         1    1        2.16706407       3.72670949       1.68392763
         2    1        8.60480056       0.01337771       1.68392763
         3    1        4.31398602       7.44528720       4.80574613
         4    1        8.60177212       7.44528720       1.68392763
         5    1       10.74869377       3.72670949       4.80574613
         6    1        4.31095697       0.01337771       4.80574613
         7    2       -0.00000615       7.45691999       0.31818199
         8    2       -0.00000615       7.45691999       3.44000049
         9    2        6.45788538       3.72845440       0.04358683
        10    2        6.45788538       3.72845440       3.16540533
        11    2        0.00000000       0.00000000       6.19212075
        12    2        0.00000000       0.00000000       3.07030225
        13    3       -1.01960857       1.77283710       1.50549073
        14    3        5.43236155       9.41594884       1.50549073
        15    3        4.41275298      11.18196286       4.62730923
        16    3       -4.41275205      11.18196286       1.50549073
        17    3        1.01960872       1.77283710       4.62730923
        18    3       -5.43236077       9.41594884       4.62730923
        19    3       -1.02791324       5.67628669       1.89028608
        20    3        2.05602746       7.45703185       1.89028608
        21    3        1.02811406       9.23743026       5.01210458
        22    3       -1.02811329       9.23743026       1.89028608
        23    3        1.02791371       5.67628669       5.01210458
        24    3       -2.05602684       7.45703185       5.01210458
        25    3        5.43408549       1.94477868       1.60579476
        26    3        8.51448728       3.73366679       1.60579476
        27    3        7.49069400       5.50692893       4.72761326
        28    3        5.42506398       5.50692893       1.60579476
        29    3        7.48167220       1.94477868       4.72761326
        30    3        4.40127056       3.73366679       4.72761326
