 # La4 Ni2 O8
 
          14  atoms
           3  atom types
 
      0.00000000       7.07748515  xlo xhi
      0.00000000       3.80655838  ylo yhi
      0.00000000       7.34320200  zlo zhi
