 # Cu4 Ge4 O12
 
          20  atoms
           3  atom types
 
      0.00000000       6.85573600  xlo xhi
      0.00000000       4.92689800  ylo yhi
      0.00000000       6.29380800  zlo zhi
      0.00000000       0.00000000       0.39863000  xy xz yz
 
Masses
 
           1   63.54600000    # Cu
           2   72.63000000    # Ge
           3   15.99900000    # O 
 
Atoms # atomic
 
         1    1        0.00000000       0.00000000       0.00000000
         2    1        3.42786800       0.19931500       3.14690400
         3    1        3.42786800       0.00000000       0.00000000
         4    1        0.00000000       0.19931500       3.14690400
         5    2        1.38471470       2.59307882       1.59316421
         6    2        2.04315330       2.79239382       4.74006821
         7    2        4.81258270       2.53313418       1.55373979
         8    2        5.47102130       2.73244918       4.70064379
         9    3        6.04016393       1.02052719       4.69796263
        10    3        1.34545876       2.02359566       6.28689740
        11    3        5.51027724       3.30193234       0.00691060
        12    3        2.61229593       4.50431581       4.74274937
        13    3        6.55300041       1.82059403       2.00060016
        14    3        4.24344007       0.82121219       1.55105863
        15    3        4.77332676       3.50124734       3.15381460
        16    3        3.73060359       2.01990903       5.14750416
        17    3        3.12513241       3.30561897       1.14630384
        18    3        0.30273559       3.50493397       4.29320784
        19    3        0.81557207       4.30500081       1.59584537
        20    3        2.08240924       1.82428066       3.13999340
