 # Cu16 Ge16 O48
 
          80  atoms
           3  atom types
 
      0.00000000       8.69434000  xlo xhi
      0.00000000       9.83650100  ylo yhi
      0.00000000      11.94106000  zlo zhi
 
Masses
 
           1   63.54600000    # Cu
           2   72.63000000    # Ge
           3   15.99900000    # O 
 
Atoms # atomic
 
         1    1        4.34717000       4.91825050       0.00000000
         2    1        0.00000000       0.00000000       0.00000000
         3    1        4.34717000       4.91825050       8.93046801
         4    1        0.00000000       0.00000000       3.01059199
         5    1        4.34717000       4.91825050       3.01059199
         6    1        0.00000000       0.00000000       8.93046801
         7    1        4.34717000       4.91825050       5.97053000
         8    1        0.00000000       0.00000000       5.97053000
         9    1        0.00000000       4.91825050       0.00000000
        10    1        4.34717000       0.00000000       0.00000000
        11    1        0.00000000       4.91825050       8.96329399
        12    1        4.34717000       0.00000000       2.97776601
        13    1        0.00000000       4.91825050       2.97776601
        14    1        4.34717000       0.00000000       8.96329399
        15    1        0.00000000       4.91825050       5.97053000
        16    1        4.34717000       0.00000000       5.97053000
        17    2        6.51938999       2.02911277      10.44337643
        18    2        2.17495001       7.80738823      10.44337643
        19    2        6.52212001       6.94736327       1.49768357
        20    2        2.17221999       2.88913773       1.49768357
        21    2        2.17495001       7.80738823       1.49768357
        22    2        6.51938999       2.02911277       1.49768357
        23    2        2.17221999       2.88913773      10.44337643
        24    2        6.52212001       6.94736327      10.44337643
        25    2        6.54433405       2.03152272       7.46358044
        26    2        2.15000595       7.80497828       7.46358044
        27    2        6.49717595       6.94977322       4.47747956
        28    2        2.19716405       2.88672778       4.47747956
        29    2        2.15000595       7.80497828       4.47747956
        30    2        6.54433405       2.03152272       4.47747956
        31    2        2.19716405       2.88672778       7.46358044
        32    2        6.49717595       6.94977322       7.46358044
        33    3        6.51733812       3.03031119       0.00000000
        34    3        2.17700188       6.80618981       0.00000000
        35    3        6.52417188       7.94856169       0.00000000
        36    3        2.17016812       1.88793931       0.00000000
        37    3        6.50647889       3.04551842       8.95418296
        38    3        2.18786111       6.79098258       8.95418296
        39    3        6.53503111       7.96376892       2.98687704
        40    3        2.15930889       1.87273208       2.98687704
        41    3        2.18786111       6.79098258       2.98687704
        42    3        6.50647889       3.04551842       2.98687704
        43    3        2.15930889       1.87273208       8.95418296
        44    3        6.53503111       7.96376892       8.95418296
        45    3        6.50033200       3.03701968       5.97053000
        46    3        2.19400800       6.79948132       5.97053000
        47    3        6.54117800       7.95527018       5.97053000
        48    3        2.15316200       1.88123082       5.97053000
        49    3        5.05339385       1.03177026      10.44804539
        50    3        3.64094615       8.80473074      10.44804539
        51    3        7.98811615       5.95002076       1.49301461
        52    3        0.70622385       3.88648024       1.49301461
        53    3        3.64094615       8.80473074       1.49301461
        54    3        5.05339385       1.03177026       1.49301461
        55    3        0.70622385       3.88648024      10.44804539
        56    3        7.98811615       5.95002076      10.44804539
        57    3        5.14417145       0.95037322       7.46927632
        58    3        3.55016855       8.88612778       7.46927632
        59    3        7.89733855       5.86862372       4.47178368
        60    3        0.79700145       3.96787728       4.47178368
        61    3        3.55016855       8.88612778       4.47178368
        62    3        5.14417145       0.95037322       4.47178368
        63    3        0.79700145       3.96787728       7.46927632
        64    3        7.89733855       5.86862372       7.46927632
        65    3        7.97533547       1.01647450      10.43258171
        66    3        0.71900453       8.82002650      10.43258171
        67    3        5.06617453       5.93472500       1.50847829
        68    3        3.62816547       3.90177600       1.50847829
        69    3        0.71900453       8.82002650       1.50847829
        70    3        7.97533547       1.01647450       1.50847829
        71    3        3.62816547       3.90177600      10.43258171
        72    3        5.06617453       5.93472500      10.43258171
        73    3        8.06201804       1.10378329       7.45394400
        74    3        0.63232196       8.73271771       7.45394400
        75    3        4.97949196       6.02203379       4.48711600
        76    3        3.71484804       3.81446721       4.48711600
        77    3        0.63232196       8.73271771       4.48711600
        78    3        8.06201804       1.10378329       4.48711600
        79    3        3.71484804       3.81446721       7.45394400
        80    3        4.97949196       6.02203379       7.45394400
