 # Cu16 Ge16 O48
 
          80  atoms
           3  atom types
 
      0.00000000       8.76871000  xlo xhi
      0.00000000       9.93576800  ylo yhi
      0.00000000      11.92274000  zlo zhi
 
Masses
 
           1   63.54600000    # Cu
           2   72.63000000    # Ge
           3   15.99900000    # O 
 
Atoms # atomic
 
         1    1        4.38435500       4.96788400       8.90962515
         2    1        4.38435500       0.00000000       0.00000000
         3    1        4.38435500       4.96788400       5.96137000
         4    1        0.00000000       4.96788400       2.94918512
         5    1        4.38435500       0.00000000       2.94918512
         6    1        0.00000000       0.00000000       0.00000000
         7    1        4.38435500       0.00000000       5.96137000
         8    1        4.38435500       4.96788400       3.01311485
         9    1        0.00000000       0.00000000       3.01311485
        10    1        0.00000000       0.00000000       8.90962515
        11    1        4.38435500       0.00000000       8.97355488
        12    1        4.38435500       4.96788400       0.00000000
        13    1        0.00000000       4.96788400       8.97355488
        14    1        0.00000000       4.96788400       5.96137000
        15    1        0.00000000       4.96788400       0.00000000
        16    1        0.00000000       0.00000000       5.96137000
        17    2        6.58042581       2.01678206      10.43113369
        18    2        2.20292794       2.95246314       7.45317900
        19    2        2.18828419       7.91898594       1.49160631
        20    2        6.57263919       6.98466606       1.49160631
        21    2        2.18142706       7.92034714       4.46956100
        22    2        2.18142706       7.92034714       7.45317900
        23    2        6.58042581       2.01678206       1.49160631
        24    2        6.56578206       6.98330486       7.45317900
        25    2        2.19607081       2.95110194      10.43113369
        26    2        6.56578206       6.98330486       4.46956100
        27    2        2.19607081       2.95110194       1.49160631
        28    2        6.57263919       6.98466606      10.43113369
        29    2        2.20292794       2.95246314       4.46956100
        30    2        2.18828419       7.91898594      10.43113369
        31    2        6.58728294       2.01542086       4.46956100
        32    2        6.58728294       2.01542086       7.45317900
        33    3        0.70558302       3.91045002       1.48166275
        34    3        6.56018762       7.98926163       0.00000000
        35    3        8.02236125       0.98802271       1.50168103
        36    3        6.57977692       3.02552084       8.94163770
        37    3        0.78116930       4.00775100       7.46319410
        38    3        2.20240182       6.91669547       5.96137000
        39    3        2.18195318       1.94881147       5.96137000
        40    3        0.78116930       4.00775100       4.45954590
        41    3        6.58675682       7.98695653       5.96137000
        42    3        8.06312698       6.02531798      10.44107725
        43    3        8.09545721       1.08095194       4.47995763
        44    3        0.67325279       8.85481606       4.47995763
        45    3        5.16552430       0.96013300       4.45954590
        46    3        8.06312698       6.02531798       1.48166275
        47    3        5.08993802       1.05743398      10.44107725
        48    3        5.05760779       6.04883594       7.44278237
        49    3        6.57977692       3.02552084       2.98109037
        50    3        5.05760779       6.04883594       4.47995763
        51    3        8.02236125       0.98802271      10.42105897
        52    3        5.13070375       5.95590671      10.42105897
        53    3        0.74634875       8.94774529      10.42105897
        54    3        6.59287738       3.02137763       0.00000000
        55    3        6.56630818       3.01907253       5.96137000
        56    3        6.57328808       7.99340484       8.94163770
        57    3        3.67877198       8.87833402       1.48166275
        58    3        3.71110221       3.88693206       4.47995763
        59    3        6.57328808       7.99340484       2.98109037
        60    3        2.20852238       1.94650637       0.00000000
        61    3        2.19542192       1.94236316       2.98109037
        62    3        8.09545721       1.08095194       7.44278237
        63    3        3.67877198       8.87833402      10.44107725
        64    3        2.18893308       6.91024716       8.94163770
        65    3        5.16552430       0.96013300       7.46319410
        66    3        0.74634875       8.94774529       1.50168103
        67    3        7.98754070       5.92801700       7.46319410
        68    3        3.60318570       8.97563500       4.45954590
        69    3        3.63800625       3.97986129      10.42105897
        70    3        0.70558302       3.91045002      10.44107725
        71    3        2.17583262       6.91439037       0.00000000
        72    3        5.08993802       1.05743398       1.48166275
        73    3        7.98754070       5.92801700       4.45954590
        74    3        0.67325279       8.85481606       7.44278237
        75    3        2.19542192       1.94236316       8.94163770
        76    3        3.60318570       8.97563500       7.46319410
        77    3        3.71110221       3.88693206       7.44278237
        78    3        5.13070375       5.95590671       1.50168103
        79    3        2.18893308       6.91024716       2.98109037
        80    3        3.63800625       3.97986129       1.50168103
