 # Cu2 Ge2 O6
 
          10  atoms
           3  atom types
 
      0.00000000       2.96563400  xlo xhi
      0.00000000       4.90831700  ylo yhi
      0.00000000       8.74789400  zlo zhi
 
Masses
 
           1   63.54600000    # Cu
           2   72.63000000    # Ge
           3   15.99900000    # O 
 
Atoms # atomic
 
         1    1        0.00000000       2.45415850       4.37394700
         2    1        0.00000000       2.45415850       0.00000000
         3    2        1.48281700       0.41820824       2.18697350
         4    2        1.48281700       4.49010876       6.56092050
         5    3        0.00000000       4.30474126       2.18697350
         6    3        0.00000000       0.60357574       6.56092050
         7    3        1.48281700       1.40742554       3.64963887
         8    3        1.48281700       3.50089146       5.09825513
         9    3        1.48281700       1.40742554       0.72430813
        10    3        1.48281700       3.50089146       8.02358587
