 # Y6 Mn6 O18
 
          30  atoms
           3  atom types
 
      0.00000000       6.23302166  xlo xhi
      0.00000000       5.39795530  ylo yhi
      0.00000000      11.58909000  zlo zhi
     -3.11651049       0.00000000       0.00000000  xy xz yz
 
Masses
 
           1   88.90585000    # Y 
           2   54.93804500    # Mn
           3   15.99900000    # O 
 
Atoms # atomic
 
         1    1        3.11651406       1.79931663       2.70077948
         2    1       -0.00000289       3.59863866       8.49532448
         3    1        3.11651406       1.79931663       8.49532448
         4    1       -0.00000289       3.59863866       2.70077948
         5    1        0.00000000       0.00000000       8.99287888
         6    1        0.00000000       0.00000000       3.19833388
         7    2        4.15367940       0.00000000       5.81048000
         8    2        2.07683993       3.59719201       0.01593500
         9    2       -1.03967102       1.80076328       0.01593500
        10    2       -2.07683947       3.59719201       5.81048000
        11    2        1.03967124       1.80076328       5.81048000
        12    2        2.07934226       0.00000000       0.01593500
        13    3        3.11651406       1.79931663       0.24594367
        14    3       -0.00000289       3.59863866       6.04048867
        15    3        3.11651406       1.79931663       6.04048867
        16    3       -0.00000289       3.59863866       0.24594367
        17    3        0.00000000       0.00000000      11.32879904
        18    3        0.00000000       0.00000000       5.53425404
        19    3        2.23513040       0.00000000       9.70327851
        20    3        1.11756532       1.93567978       3.90873351
        21    3       -1.99894541       3.46227552       3.90873351
        22    3       -1.11756508       1.93567978       9.70327851
        23    3        1.99894585       3.46227552       9.70327851
        24    3        3.99789126       0.00000000       3.90873351
        25    3        1.91799426       0.00000000       1.91989501
        26    3        0.95899723       1.66103181       7.71444001
        27    3       -2.15751346       3.73692348       7.71444001
        28    3       -0.95899703       1.66103181       1.91989501
        29    3        2.15751394       3.73692348       1.91989501
        30    3        4.31502740       0.00000000       7.71444001
