 # Ca4 Ir4 O12
 
          20  atoms
           3  atom types
 
      0.00000000       5.35601600  xlo xhi
      0.00000000       5.69150000  ylo yhi
      0.00000000       7.73688100  zlo zhi
 
Masses
 
           1   40.07800000    # Ca
           2   192.21700000    # Ir
           3   15.99900000    # O 
 
Atoms # atomic
 
         1    1        2.78398213       0.37327703       1.93422025
         2    1        2.57203387       5.31822297       5.80266075
         3    1        5.25004187       3.21902703       1.93422025
         4    1        0.10597413       2.47247297       5.80266075
         5    2        0.00000000       0.00000000       3.86844050
         6    2        0.00000000       0.00000000       0.00000000
         7    2        2.67800800       2.84575000       3.86844050
         8    2        2.67800800       2.84575000       0.00000000
         9    3        1.66802942       1.11197112       7.32188244
        10    3        3.26304027       3.08905593       5.80266075
        11    3        2.09297573       2.60244407       1.93422025
        12    3        4.34603742       1.73377888       3.45344194
        13    3        4.34603742       1.73377888       0.41499856
        14    3        3.68798658       4.57952888       0.41499856
        15    3        1.00997858       3.95772112       4.28343906
        16    3        0.58503227       5.44819407       1.93422025
        17    3        3.68798658       4.57952888       3.45344194
        18    3        1.00997858       3.95772112       7.32188244
        19    3        1.66802942       1.11197112       4.28343906
        20    3        4.77098373       0.24330593       5.80266075
