 # Mn2 O2
 
           4  atoms
           2  atom types
 
      0.00000000       3.19735533  xlo xhi
      0.00000000       2.76904599  ylo yhi
      0.00000000       5.12633454  zlo zhi
