 # Mn4 O4
 
           8  atoms
           2  atom types
 
      0.00000000       3.20364697  xlo xhi
      0.00000000       4.48906700  ylo yhi
      0.00000000       6.33540169  zlo zhi
      0.00000000      -0.00000211       0.00000300  xy xz yz
 
Masses
 
           1   54.93804500    # Mn
           2   15.99900000    # O 
 
Atoms # atomic
 
         1    1        1.60182833       2.24452675       4.71466022
         2    1        0.00000960       0.00000900       0.03689104
         3    1        1.60181977       2.24453423       1.54695304
         4    1        3.20363629       4.48906403       3.20459822
         5    2       -0.00000104       2.24453499       3.14178272
         6    2        1.60181869       0.00000226       4.77750107
         7    2       -0.00000210       2.24454097       6.30945188
         8    2        1.60182295       0.00000076       1.60976855
