 # Cd1 Cl2
 
           3  atoms
           2  atom types
 
      0.00000000       6.71002283  xlo xhi
      0.00000000       3.75412879  ylo yhi
      0.00000000       3.34645200  zlo zhi
