 # C4
 
           4  atoms
           1  atom types
 
      0.00000000       2.46776370  xlo xhi
      0.00000000       2.13691410  ylo yhi
      0.00000000       8.02832800  zlo zhi
