 # C8
 
           8  atoms
           1  atom types
 
      0.00000000      19.14118073  xlo xhi
      0.00000000       2.46401473  ylo yhi
      0.00000000       2.13686200  zlo zhi
