 # C2
 
           2  atoms
           1  atom types
 
      0.00000000       2.46719205  xlo xhi
      0.00000000       2.13665097  ylo yhi
      0.00000000       3.83003200  zlo zhi
