 # C2
 
           2  atoms
           1  atom types
 
      0.00000000       4.52647511  xlo xhi
      0.00000000       2.25229541  ylo yhi
      0.00000000       2.06464706  zlo zhi
