 # C2
 
           2  atoms
           1  atom types
 
      0.00000000       2.52699457  xlo xhi
      0.00000000       2.18844149  ylo yhi
      0.00000000       2.06328243  zlo zhi
