 # C60
 
          60  atoms
           1  atom types
 
      0.00000000       9.96986634  xlo xhi
      0.00000000       9.84506154  ylo yhi
      0.00000000       6.46985587  zlo zhi
