 # C12
 
          12  atoms
           1  atom types
 
      0.00000000       6.86513898  xlo xhi
      0.00000000       2.77849524  ylo yhi
      0.00000000       6.71668569  zlo zhi
