 # C4
 
           4  atoms
           1  atom types
 
      0.00000000       2.46772428  xlo xhi
      0.00000000       2.13711175  ylo yhi
      0.00000000       8.68503800  zlo zhi
