 # C4
 
           4  atoms
           1  atom types
 
      0.00000000       4.13728229  xlo xhi
      0.00000000       2.55352324  ylo yhi
      0.00000000       2.51200100  zlo zhi
