 # C1
 
           1  atoms
           1  atom types
 
      0.00000000       3.32522163  xlo xhi
      0.00000000       2.15110056  ylo yhi
      0.00000000       1.14570390  zlo zhi
