 # Sr1 Ti1 O3
 
           5  atoms
           3  atom types
 
      0.00000000       3.94513000  xlo xhi
      0.00000000       3.94513000  ylo yhi
      0.00000000       3.94513000  zlo zhi
 
Masses
 
           1   87.62000000    # Sr
           2   47.86700000    # Ti
           3   15.99900000    # O 
 
Atoms # atomic
 
         1    1        0.00000000       0.00000000       0.00000000
         2    2        1.97256500       1.97256500       1.97256500
         3    3        1.97256500       0.00000000       1.97256500
         4    3        1.97256500       1.97256500       0.00000000
         5    3        0.00000000       1.97256500       1.97256500
