 # Cu12 Mo8 O36
 
          56  atoms
           3  atom types
 
      0.00000000       6.89095100  xlo xhi
      0.00000000       7.76066500  ylo yhi
      0.00000000      14.88120600  zlo zhi
 
Masses
 
           1   63.54600000    # Cu
           2   95.96000000    # Mo
           3   15.99900000    # O 
 
Atoms # atomic
 
         1    1        0.01393350       1.26406488       2.10552696
         2    1        6.86894130       2.30460708      13.91315379
         3    1        5.12753597       3.90602030       7.41104892
         4    1        5.12753597       0.02568780       0.02955408
         5    1        6.86894130       6.18493958       8.40865521
         6    1        3.45941589       6.49660012      12.77567904
         7    1        1.68206047       7.73497720      14.85165192
         8    1        3.42346580       1.57572542       6.47255079
         9    1        0.01393350       5.14439738       5.33507604
        10    1        3.45941589       2.61626762       9.54612996
        11    1        1.68206047       3.85464470       7.47015708
        12    1        3.42346580       5.45605792       0.96805221
        13    2        3.41677469       2.03309245       2.46818195
        14    2        6.86225019       1.84724005       9.90878495
        15    2        3.41607870       6.56673325       9.13826586
        16    2        3.41677469       5.91342495       4.97242105
        17    2        3.41607870       2.68640075      13.18354314
        18    2        6.86225019       5.72757255      12.41302405
        19    2        6.86155420       5.07426425       1.69766286
        20    2        6.86155420       1.19393175       5.74294014
        21    3        6.83601634       0.25399104       9.07214866
        22    3        3.36937873       0.53828749       8.84712995
        23    3        5.40932763       2.85235481       9.38754094
        24    3        3.41764295       3.19073533       7.65725848
        25    3        3.37102567       2.31187882       4.18815174
        26    3        6.81650117       1.56845368      11.62875474
        27    3        6.81485423       7.22237751       6.03407605
        28    3        6.81485423       3.34204501       1.40652695
        29    3        6.86311845       4.56992967       7.22394752
        30    3        4.93110941       1.10435815       1.99431970
        31    3        5.37960006       1.97726223       6.49086955
        32    3        0.01582851       1.51526208       3.99121386
        33    3        5.40932763       6.73268731      12.93426806
        34    3        1.45955855       5.80816705       0.92364669
        35    3        1.96385213       1.02797769       1.94693794
        36    3        6.81650117       5.44878618      10.69305426
        37    3        1.48563391       6.65630685      12.88688630
        38    3        3.41764295       7.07106783      14.66455052
        39    3        4.90503405       1.95249795      13.95755931
        40    3        3.46130401       2.36507042      11.43181686
        41    3        3.39054084       7.50667396       5.80905734
        42    3        6.83601634       4.13432354      13.24966034
        43    3        6.86311845       0.68959717       0.21665548
        44    3        3.39054084       3.62634146       1.63154566
        45    3        3.46130401       6.24540292      10.88999214
        46    3        5.37960006       5.85759473       0.94973345
        47    3        3.36937873       4.41861999      13.47467905
        48    3        1.93412456       5.78340277       8.39033645
        49    3        4.90503405       5.83283045       8.36424969
        50    3        1.96385213       4.90831019       5.49366506
        51    3        1.48563391       2.77597435       9.43492270
        52    3        1.45955855       1.92783455       6.51695631
        53    3        1.93412456       1.90307027      13.93147255
        54    3        4.93110941       4.98469065       5.44628330
        55    3        0.01582851       5.39559458       3.44938914
        56    3        3.37102567       6.19221132       3.25245126
