 # Cu12 Mo8 O36
 
          56  atoms
           3  atom types
 
      0.00000000       6.91477900  xlo xhi
      0.00000000       7.73783300  ylo yhi
      0.00000000      14.82603000  zlo zhi
 
Masses
 
           1   63.54600000    # Cu
           2   95.96000000    # Mo
           3   15.99900000    # O 
 
Atoms # atomic
 
         1    1        1.72869475       5.44782906      13.87353170
         2    1        1.72869475       6.46748201       2.12535588
         3    1        5.18608425       6.15892044       6.46051670
         4    1        1.72869475       1.57891256       8.36551330
         5    1        1.72869475       2.59856551       5.28765912
         6    1        5.18608425       2.29000394       0.95249830
         7    1        3.45738950       3.86891650       7.41301500
         8    1        5.18608425       1.27035099      12.70067412
         9    1        0.00000000       0.00000000       0.00000000
        10    1        5.18608425       5.13926749       9.53837088
        11    1        3.45738950       0.00000000       0.00000000
        12    1        0.00000000       3.86891650       7.41301500
        13    2        1.72869475       2.04690444      12.32063849
        14    2        1.72869475       6.51393995       5.74369298
        15    2        5.18608425       1.82201206       4.90762349
        16    2        1.72869475       2.64502345       1.66932202
        17    2        5.18608425       1.22389305       9.08233702
        18    2        5.18608425       5.69092856       2.50539151
        19    2        5.18608425       5.09280955      13.15670798
        20    2        1.72869475       5.91582094       9.91840651
        21    3        3.69506428       5.83477488      13.93778772
        22    3        5.18608425       1.61219298      10.82412868
        23    3        1.72869475       6.22028919      11.64337062
        24    3        5.18608425       4.54448349       7.65909745
        25    3        3.69688287       6.65852136       2.02578426
        26    3        6.67528563       2.78960486       5.38723074
        27    3        3.21971472       1.90305812       0.88824228
        28    3        1.72869475       2.25672352       3.41111368
        29    3        3.69688287       2.78960486       5.38723074
        30    3        5.18608425       0.23837168       5.77043914
        31    3        1.72869475       0.51715033       5.98686952
        32    3        5.18608425       1.51754381       3.18265938
        33    3        1.72869475       3.63054482      13.18345414
        34    3        1.72869475       6.12564002       4.00190132
        35    3        5.18608425       0.67556699      14.57994755
        36    3        1.72869475       3.19334951       7.16693255
        37    3        1.72869475       7.06226601       0.24608245
        38    3        1.72869475       7.49946132       9.05559086
        39    3        3.21789613       4.94822814       9.43879926
        40    3        1.72869475       2.35137269      10.59567438
        41    3        5.18608425       4.10728818       1.64257586
        42    3        0.23949337       4.94822814       9.43879926
        43    3        6.67710422       5.83477488      13.93778772
        44    3        0.23949337       1.07931164      12.80024574
        45    3        5.18608425       5.38646031       4.23035562
        46    3        0.23767478       1.90305812       0.88824228
        47    3        0.23767478       5.77197462       6.52477272
        48    3        6.67710422       1.96585838       8.30125728
        49    3        6.67528563       6.65852136       2.02578426
        50    3        1.72869475       4.38606683       1.42614548
        51    3        5.18608425       5.48110948      11.41491632
        52    3        5.18608425       3.35176617      13.39988452
        53    3        3.21971472       5.77197462       6.52477272
        54    3        5.18608425       7.22068267       8.83916048
        55    3        3.69506428       1.96585838       8.30125728
        56    3        3.21789613       1.07931164      12.80024574
