 # Ba1 Y2 Ni1 O5
 
           9  atoms
           4  atom types
 
      0.00000000       3.80304591  xlo xhi
      0.00000000       5.81773960  ylo yhi
      0.00000000       5.72889560  zlo zhi
     -0.00000000      -1.90152295      -2.90886980  xy xz yz
 
Masses
 
           1   15.99900000    # O 
           2   58.69340000    # Ni
           3   88.90585000    # Y 
           4   137.32700000    # Ba
 
Atoms # atomic
 
         1    1       -0.00000081      -1.39947887       4.01745341
         2    1        1.90152446       4.30835228       1.71144678
         3    1        1.90152069       1.50938936       1.71144345
         4    1        0.00000579       1.39947943       4.01744361
         5    1       -1.90152173      -0.00000093       5.72889445
         6    2        1.90152605       2.90886605       0.00000441
         7    3        1.90152094       0.00000163       3.39918509
         8    3        0.00000270       2.90887172       2.32971509
         9    4        0.00000000       0.00000000       0.00000000
