 # Ti2 Cl2 O2
 
           6  atoms
           3  atom types
 
      0.00000000       3.26893500  xlo xhi
      0.00000000       3.97447900  ylo yhi
      0.00000000       8.20957200  zlo zhi
 
Masses
 
           1   47.86700000    # Ti
           2   35.45000000    # Cl
           3   15.99900000    # O 
 
Atoms # atomic
 
         1    1        1.63446750       0.00000000       0.84450225
         2    1        0.00000000       1.98723950       7.36506975
         3    2        1.63446750       1.98723950       5.59129320
         4    2        0.00000000       0.00000000       2.61827880
         5    3        0.00000000       0.00000000       7.69854256
         6    3        1.63446750       1.98723950       0.51102944
