 # Li4 V4 Cu4 O16
 
          28  atoms
           4  atom types
 
      0.00000000       6.09524400  xlo xhi
      0.00000000       6.09524400  ylo yhi
      0.00000000       7.79678400  zlo zhi
 
Masses
 
           1   6.94000000    # Li
           2   50.94150000    # V 
           3   63.54600000    # Cu
           4   15.99900000    # O 
 
Atoms # atomic
 
         1    1        3.04762200       4.49085997       0.00000000
         2    1        3.04762200       1.60438403       3.89839200
         3    1        4.49085997       3.04762200       1.94919600
         4    1        1.60438403       3.04762200       5.84758800
         5    2        4.36729718       0.00000000       1.94919600
         6    2        0.00000000       4.36729718       0.00000000
         7    2        0.00000000       1.72794682       3.89839200
         8    2        1.72794682       0.00000000       5.84758800
         9    3        4.62896601       4.62896601       4.87299000
        10    3        4.62896601       1.46627799       6.82218600
        11    3        1.46627799       4.62896601       2.92379400
        12    3        1.46627799       1.46627799       0.97459800
        13    4        3.25244048       4.72347277       2.08730823
        14    4        3.25244048       1.37177123       1.81108377
        15    4        4.72347277       3.25244048       7.65867177
        16    4        4.72347277       2.84280352       4.03650423
        17    4        4.69250893       5.92878289       0.08319948
        18    4        4.69250893       0.16646111       3.81519252
        19    4        5.92878289       4.69250893       1.86599652
        20    4        5.92878289       1.40273507       2.03239548
        21    4        0.16646111       4.69250893       5.93078748
        22    4        0.16646111       1.40273507       5.76438852
        23    4        1.40273507       0.16646111       3.98159148
        24    4        1.40273507       5.92878289       7.71358452
        25    4        1.37177123       3.25244048       0.13811223
        26    4        1.37177123       2.84280352       3.76027977
        27    4        2.84280352       4.72347277       5.70947577
        28    4        2.84280352       1.37177123       5.98570023
