 # Al16 O24
 
          40  atoms
           2  atom types
 
      0.00000000       5.71573438  xlo xhi
      0.00000000       4.82206352  ylo yhi
      0.00000000      14.43474455  zlo zhi
