 # Al16 O24
 
          40  atoms
           2  atom types
 
      0.00000000       5.59359664  xlo xhi
      0.00000000       5.31133381  ylo yhi
      0.00000000      13.87635251  zlo zhi
