 # Al4 O6
 
          10  atoms
           2  atom types
 
      0.00000000       5.59784556  xlo xhi
      0.00000000       4.81438589  ylo yhi
      0.00000000       4.96874100  zlo zhi
