 # Al2 O3
 
           5  atoms
           2  atom types
 
      0.00000000       6.09211334  xlo xhi
      0.00000000       2.93908985  ylo yhi
      0.00000000       2.59902000  zlo zhi
