 # Cs2 Co2 Cl6
 
          10  atoms
           3  atom types
 
      0.00000000       7.34094178  xlo xhi
      0.00000000       6.35744220  ylo yhi
      0.00000000       5.95003100  zlo zhi
     -3.67047066       0.00000000       0.00000000  xy xz yz
 
Masses
 
           1   132.90545190    # Cs
           2   58.93319500    # Co
           3   35.45000000    # Cl
 
Atoms # atomic
 
         1    1        3.67047464       2.11914528       1.48750775
         2    1       -0.00000352       4.23829692       4.46252325
         3    2        0.00000000       0.00000000       0.00000000
         4    2        0.00000000       0.00000000       2.97501550
         5    3        3.67047472       4.42885489       4.46252325
         6    3        5.67074175       0.96429048       4.46252325
         7    3       -2.00027064       5.39315172       1.48750775
         8    3        2.00026368       5.39315172       1.48750775
         9    3        1.67020744       0.96429048       4.46252325
        10    3       -0.00000360       1.92858731       1.48750775
