 # Si40
 
          40  atoms
           1  atom types
 
      0.00000000      10.22145998  xlo xhi
      0.00000000       8.85204402  ylo yhi
      0.00000000      10.38879300  zlo zhi
     -5.11072997       0.00000000       0.00000000  xy xz yz
 
Masses
 
           1   28.08500000    # Si
 
Atoms # atomic
 
         1    1        5.11073000       5.14494962       7.14328212
         2    1        0.00000001       3.70709440       7.14328212
         3    1        3.21043793       1.85354720       3.24551088
         4    1        1.90029208       6.99849682       3.24551088
         5    1        0.00000001       3.70709440       3.24551088
         6    1        5.11073000       5.14494962       3.24551088
         7    1        1.90029208       6.99849682       7.14328212
         8    1        3.21043793       1.85354720       7.14328212
         9    1        6.33572086       0.00000000       8.44294090
        10    1        3.88573912       0.00000000       8.44294090
        11    1       -1.94286955       3.36514879       1.94585210
        12    1       -3.16786042       5.48689522       1.94585210
        13    1        3.88573912       0.00000000       1.94585210
        14    1        6.33572086       0.00000000       1.94585210
        15    1       -3.16786042       5.48689522       8.44294090
        16    1       -1.94286955       3.36514879       8.44294090
        17    1        3.16786044       5.48689522       8.44294090
        18    1        1.94286957       3.36514879       8.44294090
        19    1        1.94286957       3.36514879       1.94585210
        20    1        3.16786044       5.48689522       1.94585210
        21    1        8.19275060       1.17127591       5.19439650
        22    1       -3.08202059       7.68076811       5.19439650
        23    1        7.01102206       1.85354720       7.14328212
        24    1       -1.90029205       6.99849682       7.14328212
        25    1        7.01102206       1.85354720       3.24551088
        26    1       -1.90029205       6.99849682       3.24551088
        27    1        5.11073511       2.95067839       6.36060085
        28    1       -0.00000510       5.90136563       6.36060085
        29    1        5.11073511       2.95067839       4.02819215
        30    1       -0.00000510       5.90136563       4.02819215
        31    1        5.11073512       6.50948335       5.19439650
        32    1       -0.00000511       2.34256067       5.19439650
        33    1        2.02871960       1.17127591       5.19439650
        34    1        3.08201041       7.68076811       5.19439650
        35    1        3.87286009       6.70799044       0.00000000
        36    1        1.23786992       2.14405358       0.00000000
        37    1        7.74572016       0.00000000       0.00000000
        38    1        2.47573982       0.00000000       0.00000000
        39    1       -1.23786991       2.14405358       0.00000000
        40    1       -3.87286006       6.70799044       0.00000000
