 # Si6
 
           6  atoms
           1  atom types
 
      0.00000000       6.88715307  xlo xhi
      0.00000000       5.96444940  ylo yhi
      0.00000000       2.46431369  zlo zhi
     -3.44357653       0.00000000       0.00000000  xy xz yz
 
Masses
 
           1   28.08500000    # Si
 
Atoms # charge
 
         1    1   0.000000       -1.47337144       4.28633492       0.00000000
         2    1   0.000000        0.46818726       2.54530487       0.00000000
         3    1   0.000000        1.00518419       5.09725902       0.00000000
         4    1   0.000000        4.91694798       1.67811448       0.00000000
         5    1   0.000000        2.97538928       3.41914454       0.00000000
         6    1   0.000000        2.43839234       0.86719039       0.00000000
