 # Si100
 
         100  atoms
           1  atom types
 
      0.00000000      12.89176596  xlo xhi
      0.00000000      12.45093166  ylo yhi
      0.00000000      11.95027416  zlo zhi
     -3.04912394       4.12017879      -2.72122735  xy xz yz
 
Masses
 
           1   28.08500000    # Si
 
Atoms # atomic
 
         1    1       11.04867180       3.78356251       2.01769528
         2    1        1.19127965       6.84114951       7.28994891
         3    1        3.13794481       3.76576786       8.68463409
         4    1       11.05674246       4.65633941       4.18982754
         5    1       12.87672888       8.98221133      11.84450145
         6    1        4.39112810      11.05449966       2.89207617
         7    1        5.96927936       6.21140001       9.58513469
         8    1        2.18289411       8.56820300       1.60753833
         9    1        7.55157593       6.11728137       6.01694703
        10    1        8.76309557       8.37368480      11.07826433
        11    1       12.44703333      10.07701201       9.08012053
        12    1       10.47916845       0.10463201       7.80634296
        13    1        6.83934511      -0.57188372       7.53714845
        14    1        9.55831570       8.22773784       7.68491622
        15    1        8.49280999       3.32263737       8.62683133
        16    1        4.92223802       7.83111205       4.36498463
        17    1        8.75363724       3.70066823       1.43037050
        18    1        0.34377331       5.62680991       3.95714603
        19    1        2.86703622      -1.49530349       6.84339106
        20    1       -0.14584176       9.49611057       1.91034059
        21    1        9.81566993       5.29541279      11.68402444
        22    1        2.23913553      -0.13060216       3.67224934
        23    1        1.03687972       1.09642681       0.60930086
        24    1        4.24072995       3.31633744       2.47656693
        25    1        8.89567819       5.51624107       7.92023457
        26    1        2.69314082       4.75001981      10.80233142
        27    1        3.43092127       6.59862033       1.22544230
        28    1        7.95362870       2.92048293      10.93862513
        29    1        3.19837297      10.56771042       0.95620250
        30    1       12.31977197       7.65808151       8.72820061
        31    1       12.31965518       6.59861946      10.81579054
        32    1       14.77023799      -1.48434511      11.18452079
        33    1        8.85504896      -0.59147884       6.17348773
        34    1        6.64814066      10.38971595       2.71285205
        35    1       14.67104799       0.71531251       6.82031998
        36    1       10.40204384       8.96470362       1.95163500
        37    1        0.98512596       1.89577019       3.92254508
        38    1        5.51240598       8.23526539       8.42714787
        39    1        5.15794220       0.68907732       4.44004991
        40    1       -0.44474678      11.88884557       1.42088628
        41    1       10.15623015      10.92334907       3.25439940
        42    1        0.47330373       7.71234061       5.12978628
        43    1        2.68339338      10.75245562       4.60414953
        44    1        4.71743833      -2.11564718      10.28017961
        45    1        8.93735783      11.04863223       5.22159175
        46    1        6.76255892       9.90712464       5.12989933
        47    1        4.71380457       3.35356108      11.66700163
        48    1        2.89605282       8.35714534      10.29098839
        49    1       10.42595728      10.21048151       6.81609616
        50    1        4.98741946       9.51992069      10.38061473
        51    1        2.60178763       8.35310991       4.01262840
        52    1       12.50544354      -0.88345251       8.60151778
        53    1        6.88514634       2.47184845       4.99623121
        54    1       11.17382901       5.30360612       0.19619972
        55    1       10.77281709       2.58129409       5.36973440
        56    1        1.59112407       3.95261897       5.07538504
        57    1        5.70593271       7.20490760       2.09114179
        58    1        5.86440042       4.86264947       1.80067245
        59    1        6.53208136      10.21322186       0.28953399
        60    1       14.50509546       6.72933252      11.56442454
        61    1       12.46514456       3.16078554       8.66611356
        62    1        5.21152820       5.73884119       5.61020714
        63    1        7.51466002       4.14015473       3.37457781
        64    1        4.52170734       1.67561875       9.88415708
        65    1        7.94329378       0.86244212       2.50861756
        66    1        6.55745816       1.00161998      10.97954610
        67    1       11.38427616      -0.42593368       2.23328815
        68    1       11.43999575      -1.76229090      10.55352420
        69    1        6.61040460       3.16070044       7.25226073
        70    1        7.51879230      -0.74224426       9.77673953
        71    1        9.78685879      -0.11543076      10.08298228
        72    1       10.45604751       2.43790851       7.66912979
        73    1        4.73912816       5.73841052      11.55164803
        74    1        8.28944809       6.31330045      10.03301209
        75    1        2.19358538       3.14129730       1.28354835
        76    1        1.20363976       4.42513527       7.42022637
        77    1        8.54724970       7.42700168       2.31226094
        78    1        1.41992898       5.32021603       1.83111326
        79    1       11.55772841       3.77617640      10.78613414
        80    1       11.00052522       6.33308128       7.21104101
        81    1       12.28113127       1.76271698       2.16572058
        82    1       10.73062327       7.79300621       5.34394965
        83    1        2.30801396      10.18283928       6.91763226
        84    1       10.07813786       1.92671587      11.35687051
        85    1        8.64117188       1.62344845       0.39563522
        86    1        3.95956335       3.82554563       4.79987159
        87    1        3.10593936       8.12479326       7.92634558
        88    1       15.36343493       0.77865484      10.61526004
        89    1        8.92213056       5.90833444       0.55614461
        90    1       12.54416476       0.90458307       5.56951992
        91    1        8.89052694       1.28566249       4.66462664
        92    1        3.76614386       1.76058759       6.03332691
        93    1       13.76386035       1.13707162       8.94491704
        94    1        7.28749944       8.32745201       6.81083732
        95    1        9.04095991       6.00498980       4.16888373
        96    1        0.29786243      10.23313562       4.31061566
        97    1        5.59951219       1.40689817       2.23191494
        98    1        5.07617841       4.87608733       7.84909829
        99    1        4.74744525      -0.13425656       0.63604091
       100    1        5.36190041       1.27126142       7.72276597
