 # Si1
 
           1  atoms
           1  atom types
 
      0.00000000       2.67746303  xlo xhi
      0.00000000       2.52433635  ylo yhi
      0.00000000       2.18613941  zlo zhi
     -0.89248768      -0.89248768      -1.26216818  xy xz yz
 
Masses
 
           1   28.08500000    # Si
 
Atoms # atomic
 
         1    1        0.00000000       0.00000000       0.00000000
