 # Si8
 
           8  atoms
           1  atom types
 
      0.00000000       5.76396198  xlo xhi
      0.00000000       5.43431547  ylo yhi
      0.00000000       4.70625525  zlo zhi
     -1.92132066      -1.92132066      -2.71715773  xy xz yz
 
Masses
 
           1   28.08500000    # Si
 
Atoms # atomic
 
         1    1        0.39024712       0.55189278       0.95590633
         2    1        0.75057929       2.71715774       0.00000000
         3    1       -1.53107354       0.25479332       2.35312762
         4    1        2.31156778      -0.80668609       1.39722130
         5    1        1.53107354       2.16526496       3.75034892
         6    1        3.09206203       2.71715774       0.00000000
         7    1       -2.31156778       2.46236442       2.35312762
         8    1        1.53107354      -1.91047164       3.30903395
