 # Si68
 
          68  atoms
           1  atom types
 
      0.00000000      10.41140729  xlo xhi
      0.00000000       9.01654361  ylo yhi
      0.00000000      17.05618100  zlo zhi
     -5.20570294       0.00000000       0.00000000  xy xz yz
 
Masses
 
           1   28.08500000    # Si
 
Atoms # atomic
 
         1    1       -3.22617706       6.48665476       7.42701168
         2    1        1.20117991       2.97927339       7.42701168
         3    1        2.02498295       8.56716809       7.42701168
         4    1       -2.02499202       8.56716809       7.42701168
         5    1        3.22616767       6.48665476       7.42701168
         6    1       -1.20118985       2.97927339       7.42701168
         7    1        8.43188141       2.52988886       9.62916932
         8    1        4.00452444       6.03727022       9.62916932
         9    1        3.18072140       0.44937552       9.62916932
        10    1        7.23069637       0.44937552       9.62916932
        11    1        1.97953668       2.52988886       9.62916932
        12    1        6.40689421       6.03727022       9.62916932
        13    1        8.43188141       2.52988886      15.95510218
        14    1        4.00452444       6.03727022      15.95510218
        15    1        3.18072140       0.44937552      15.95510218
        16    1        7.23069637       0.44937552      15.95510218
        17    1        1.97953668       2.52988886      15.95510218
        18    1        6.40689421       6.03727022      15.95510218
        19    1       -3.22617706       6.48665476       1.10107882
        20    1        1.20117991       2.97927339       1.10107882
        21    1        2.02498295       8.56716809       1.10107882
        22    1       -2.02499202       8.56716809       1.10107882
        23    1        3.22616767       6.48665476       1.10107882
        24    1       -1.20118985       2.97927339       1.10107882
        25    1       -1.94495461       4.88810272       2.30635385
        26    1        1.94496579       4.88810272       2.30635385
        27    1        0.00000585       8.25687276       2.30635385
        28    1        7.15065897       4.12844089      14.74982715
        29    1        3.26073856       4.12844089      14.74982715
        30    1        5.20569850       0.75967085      14.74982715
        31    1        7.15065897       4.12844089      10.83444435
        32    1        3.26073856       4.12844089      10.83444435
        33    1        5.20569850       0.75967085      10.83444435
        34    1       -1.94495461       4.88810272       6.22173665
        35    1        1.94496579       4.88810272       6.22173665
        36    1        0.00000585       8.25687276       6.22173665
        37    1        0.00000017       2.22640101      10.89403865
        38    1        3.27758452       7.90334310      10.89403865
        39    1       -3.27758327       7.90334310      10.89403865
        40    1        5.20570418       6.79014260       6.16214235
        41    1        1.92811984       1.11320051       6.16214235
        42    1        8.48328763       1.11320051       6.16214235
        43    1        5.20570418       6.79014260       2.36594815
        44    1        1.92811984       1.11320051       2.36594815
        45    1        8.48328763       1.11320051       2.36594815
        46    1        0.00000017       2.22640101      14.69023285
        47    1        3.27758452       7.90334310      14.69023285
        48    1       -3.27758327       7.90334310      14.69023285
        49    1       -0.00000473       6.01103208       3.07731029
        50    1        5.20570909       3.00551153      13.97887071
        51    1        5.20570909       3.00551153      11.60540079
        52    1       -0.00000473       6.01103208       5.45078021
        53    1        0.00000000       0.00000000       3.09912514
        54    1        0.00000000       0.00000000      13.95705586
        55    1        0.00000000       0.00000000      11.62721564
        56    1        0.00000000       0.00000000       5.42896536
        57    1       -2.06190596       4.82058684      12.79213575
        58    1        2.06190671       4.82058684      12.79213575
        59    1        0.00000066       8.39191354      12.79213575
        60    1        7.26761031       4.19595677       4.26404525
        61    1        3.14379764       4.19595677       4.26404525
        62    1        5.20570369       0.62463008       4.26404525
        63    1        0.00000549       3.64628122      12.79213575
        64    1        2.04793479       7.19339849      12.79213575
        65    1       -2.04792325       7.19339849      12.79213575
        66    1        5.20569886       5.37026239       4.26404525
        67    1        3.15776956       1.82314512       4.26404525
        68    1        7.25362760       1.82314512       4.26404525
