 # Si23
 
          23  atoms
           1  atom types
 
      0.00000000       8.74815562  xlo xhi
      0.00000000       8.24784022  ylo yhi
      0.00000000       7.14283915  zlo zhi
     -2.91605187      -2.91605187      -4.12392011  xy xz yz
 
Masses
 
           1   28.08500000    # Si
 
Atoms # atomic
 
         1    1        4.01172920       2.30337434       3.98956138
         2    1       -2.76447550       3.00056427       5.19712977
         3    1       -2.08165279       2.51773570       1.94570939
         4    1        0.83439908       1.18001850       5.93527077
         5    1       -2.08165279       0.42616590       3.15327777
         6    1        3.75045096       5.30393861       1.20756839
         7    1        3.06762825       2.24671167       0.00000000
         8    1        1.09567733       3.64109154       0.00000000
         9    1        0.83439908       4.55008601       3.98956138
        10    1        1.09567733      -1.82054577       3.15327777
        11    1        3.06762825      -1.12335584       1.94570939
        12    1        3.75045096      -1.60618440       5.19712977
        13    1        0.00000000       0.00000000       0.00000000
        14    1        2.12504364       3.00526554       5.20527261
        15    1        2.37302469       0.00000000       0.00000000
        16    1       -0.79100823       2.23730914       0.00000000
        17    1       -0.79100823      -1.11865457       1.93756655
        18    1       -1.45802594       4.12392011       3.57141958
        19    1        4.37407781       0.00000000       3.57141958
        20    1        4.37407781       3.09294008       1.78570979
        21    1       -1.45802594       1.03098003       5.35712937
        22    1        1.45802594      -1.03098003       5.35712937
        23    1        1.45802594       5.15490014       1.78570979
