 # Si3
 
           3  atoms
           1  atom types
 
      0.00000000       7.04387786  xlo xhi
      0.00000000       2.63694269  ylo yhi
      0.00000000       2.31166700  zlo zhi
