 # Si46
 
          46  atoms
           1  atom types
 
      0.00000000      10.58979747  xlo xhi
      0.00000000      10.22516369  ylo yhi
      0.00000000      10.03420900  zlo zhi
     -2.75496607       0.00000000       0.00000000  xy xz yz
 
Masses
 
           1   28.08500000    # Si
 
Atoms # atomic
 
         1    1        0.07820758       3.39004054       0.59226919
         2    1        4.58186454       9.26772026       9.44193981
         3    1        0.07820758       3.39004054       4.42483531
         4    1        4.58186454       9.26772026       5.60937369
         5    1        7.75662382       6.83512314       9.44193981
         6    1        3.25296686       0.95744343       0.59226919
         7    1        7.75662382       6.83512314       5.60937369
         8    1        3.25296686       0.95744343       4.42483531
         9    1        0.59306533       5.63891192       1.26940771
        10    1        2.54435868       8.18554006       8.76480129
        11    1        0.59306533       5.63891192       3.74769679
        12    1        2.54435868       8.18554006       6.28651221
        13    1        7.24176882       4.58624154       8.76480129
        14    1        5.29046213       2.03962363       1.26940771
        15    1        7.24176882       4.58624154       6.28651221
        16    1        5.29046213       2.03962363       3.74769679
        17    1       -0.82917859       7.42778386       0.59433623
        18    1        0.44709194       9.09343234       9.43987277
        19    1       -0.82917859       7.42778386       4.42276827
        20    1        0.44709194       9.09343234       5.61144073
        21    1        8.66400999       2.79737983       9.43987277
        22    1        7.38773946       1.13173134       0.59433623
        23    1        8.66400999       2.79737983       5.61144073
        24    1        7.38773946       1.13173134       4.42276827
        25    1        2.57144951       6.14390208       0.00000000
        26    1        2.57144951       6.14390208       5.01710450
        27    1        5.26338190       4.08126161       0.00000000
        28    1        5.26338190       4.08126161       5.01710450
        29    1        1.94361013       2.53658703       9.42268417
        30    1        5.89122127       7.68857666       0.61152483
        31    1        1.94361013       2.53658703       5.62862933
        32    1        5.89122127       7.68857666       4.40557967
        33    1        3.29715560       4.30308631       8.71829273
        34    1        4.53767580       5.92207738       1.31591627
        35    1        3.29715560       4.30308631       6.33302077
        36    1        4.53767580       5.92207738       3.70118823
        37    1       -0.86417864       9.49296017       7.52565675
        38    1       -1.55608043       8.58996573       2.50855225
        39    1        8.69901004       0.73220352       2.50855225
        40    1        9.39091183       1.63519795       7.52565675
        41    1        5.88459992       9.63635786       7.52565675
        42    1        0.06117344       2.03625955       2.50855225
        43    1        1.95023148       0.58880583       2.50855225
        44    1        7.77365796       8.18890414       7.52565675
        45    1        1.12702483       1.47086935       7.52565675
        46    1        6.70780657       8.75429434       2.50855225
