 # Si4
 
           4  atoms
           1  atom types
 
      0.00000000       5.37502983  xlo xhi
      0.00000000       3.37872386  ylo yhi
      0.00000000       3.37304493  zlo zhi
