 # Si232
 
         232  atoms
           1  atom types
 
      0.00000000      17.64551021  xlo xhi
      0.00000000      17.64551021  ylo yhi
      0.00000000      17.64551021  zlo zhi
 
Masses
 
           1   28.08500000    # Si
 
Atoms # atomic
 
         1    1        4.63230975      14.92644472       7.37816377
         2    1       13.01320046       6.10368962       1.44459134
         3    1        4.19044535       2.71906549      16.20091887
         4    1       13.45506486      11.54182059      10.26734644
         5    1        7.37816377       4.63230975      14.92644472
         6    1        1.44459134      13.01320046       6.10368962
         7    1       16.20091887       4.19044535       2.71906549
         8    1       10.26734644      13.45506486      11.54182059
         9    1       14.92644472       7.37816377       4.63230975
        10    1        6.10368962       1.44459134      13.01320046
        11    1        2.71906549      16.20091887       4.19044535
        12    1       11.54182059      10.26734644      13.45506486
        13    1       13.01320046       2.71906549      10.26734644
        14    1        4.63230975      11.54182059      16.20091887
        15    1       13.45506486      14.92644472       1.44459134
        16    1        4.19044535       6.10368962       7.37816377
        17    1       10.26734644      13.01320046       2.71906549
        18    1       16.20091887       4.63230975      11.54182059
        19    1        1.44459134      13.45506486      14.92644472
        20    1        7.37816377       4.19044535       6.10368962
        21    1        2.71906549      10.26734644      13.01320046
        22    1       11.54182059      16.20091887       4.63230975
        23    1       14.92644472       1.44459134      13.45506486
        24    1        6.10368962       7.37816377       4.19044535
        25    1       15.77672963      14.39298284       7.13304469
        26    1        1.86878058       5.57022773       1.68971041
        27    1       10.69153568       3.25252737      15.95579980
        28    1        6.95397453      12.07528248      10.51246552
        29    1        7.13304469      15.77672963      14.39298284
        30    1        1.68971041       1.86878058       5.57022773
        31    1       15.95579980      10.69153568       3.25252737
        32    1       10.51246552       6.95397453      12.07528248
        33    1       14.39298284       7.13304469      15.77672963
        34    1        5.57022773       1.68971041       1.86878058
        35    1        3.25252737      15.95579980      10.69153568
        36    1       12.07528248      10.51246552       6.95397453
        37    1        1.86878058       3.25252737      10.51246552
        38    1       15.77672963      12.07528248      15.95579980
        39    1        6.95397453      14.39298284       1.68971041
        40    1       10.69153568       5.57022773       7.13304469
        41    1       10.51246552       1.86878058       3.25252737
        42    1       15.95579980      15.77672963      12.07528248
        43    1        1.68971041       6.95397453      14.39298284
        44    1        7.13304469      10.69153568       5.57022773
        45    1        3.25252737      10.51246552       1.86878058
        46    1       12.07528248      15.95579980      15.77672963
        47    1       14.39298284       1.68971041       6.95397453
        48    1        5.57022773       7.13304469      10.69153568
        49    1        6.91545473      14.25026789       7.08630756
        50    1       10.73005548       5.42751279       1.73644755
        51    1        1.90730038       3.39524232      15.90906266
        52    1       15.73820983      12.21799742      10.55920265
        53    1        7.08630756       6.91545473      14.25026789
        54    1        1.73644755      10.73005548       5.42751279
        55    1       15.90906266       1.90730038       3.39524232
        56    1       10.55920265      15.73820983      12.21799742
        57    1       14.25026789       7.08630756       6.91545473
        58    1        5.42751279       1.73644755      10.73005548
        59    1        3.39524232      15.90906266       1.90730038
        60    1       12.21799742      10.55920265      15.73820983
        61    1       10.73005548       3.39524232      10.55920265
        62    1        6.91545473      12.21799742      15.90906266
        63    1       15.73820983      14.25026789       1.73644755
        64    1        1.90730038       5.42751279       7.08630756
        65    1       10.55920265      10.73005548       3.39524232
        66    1       15.90906266       6.91545473      12.21799742
        67    1        1.73644755      15.73820983      14.25026789
        68    1        7.08630756       1.90730038       5.42751279
        69    1        3.39524232      10.55920265      10.73005548
        70    1       12.21799742      15.90906266       6.91545473
        71    1       14.25026789       1.73644755      15.73820983
        72    1        5.42751279       7.08630756       1.90730038
        73    1       17.17289728      14.16190853       5.23612429
        74    1        0.47261293       5.33915342       3.58663082
        75    1        9.29536804       3.48360168      14.05887939
        76    1        8.35014217      12.30635679      12.40938592
        77    1        5.23612429      17.17289728      14.16190853
        78    1        3.58663082       0.47261293       5.33915342
        79    1       14.05887939       9.29536804       3.48360168
        80    1       12.40938592       8.35014217      12.30635679
        81    1       14.16190853       5.23612429      17.17289728
        82    1        5.33915342       3.58663082       0.47261293
        83    1        3.48360168      14.05887939       9.29536804
        84    1       12.30635679      12.40938592       8.35014217
        85    1        0.47261293       3.48360168      12.40938592
        86    1       17.17289728      12.30635679      14.05887939
        87    1        8.35014217      14.16190853       3.58663082
        88    1        9.29536804       5.33915342       5.23612429
        89    1       12.40938592       0.47261293       3.48360168
        90    1       14.05887939      17.17289728      12.30635679
        91    1        3.58663082       8.35014217      14.16190853
        92    1        5.23612429       9.29536804       5.33915342
        93    1        3.48360168      12.40938592       0.47261293
        94    1       12.30635679      14.05887939      17.17289728
        95    1       14.16190853       3.58663082       8.35014217
        96    1        5.33915342       5.23612429       9.29536804
        97    1       13.47237987      13.87506100       6.87701028
        98    1        4.17313034       5.05230589       1.94574482
        99    1       12.99588545       3.77044921      15.69976539
       100    1        4.64962476      12.59320432      10.76849993
       101    1        6.87701028      13.47237987      13.87506100
       102    1        1.94574482       4.17313034       5.05230589
       103    1       15.69976539      12.99588545       3.77044921
       104    1       10.76849993       4.64962476      12.59320432
       105    1       13.87506100       6.87701028      13.47237987
       106    1        5.05230589       1.94574482       4.17313034
       107    1        3.77044921      15.69976539      12.99588545
       108    1       12.59320432      10.76849993       4.64962476
       109    1        4.17313034       3.77044921      10.76849993
       110    1       13.47237987      12.59320432      15.69976539
       111    1        4.64962476      13.87506100       1.94574482
       112    1       12.99588545       5.05230589       6.87701028
       113    1       10.76849993       4.17313034       3.77044921
       114    1       15.69976539      13.47237987      12.59320432
       115    1        1.94574482       4.64962476      13.87506100
       116    1        6.87701028      12.99588545       5.05230589
       117    1        3.77044921      10.76849993       4.17313034
       118    1       12.59320432      15.69976539      13.47237987
       119    1       13.87506100       1.94574482       4.64962476
       120    1        5.05230589       6.87701028      12.99588545
       121    1       16.92000094      13.60970076       9.05525694
       122    1        0.72550927       4.78694565      17.41300838
       123    1        9.54826437       4.03580945       0.23250183
       124    1        8.09724584      12.85856456       8.59025327
       125    1        9.05525694      16.92000094      13.60970076
       126    1       17.41300838       0.72550927       4.78694565
       127    1        0.23250183       9.54826437       4.03580945
       128    1        8.59025327       8.09724584      12.85856456
       129    1       13.60970076       9.05525694      16.92000094
       130    1        4.78694565      17.41300838       0.72550927
       131    1        4.03580945       0.23250183       9.54826437
       132    1       12.85856456       8.59025327       8.09724584
       133    1        0.72550927       4.03580945       8.59025327
       134    1       16.92000094      12.85856456       0.23250183
       135    1        8.09724584      13.60970076      17.41300838
       136    1        9.54826437       4.78694565       9.05525694
       137    1        8.59025327       0.72550927       4.03580945
       138    1        0.23250183      16.92000094      12.85856456
       139    1       17.41300838       8.09724584      13.60970076
       140    1        9.05525694       9.54826437       4.78694565
       141    1        4.03580945       8.59025327       0.72550927
       142    1       12.85856456       0.23250183      16.92000094
       143    1       13.60970076      17.41300838       8.09724584
       144    1        4.78694565       9.05525694       9.54826437
       145    1       10.29167184      13.55896427       9.14901794
       146    1        7.35383837       4.73620916      17.31924737
       147    1       16.17659348       4.08654594       0.32626284
       148    1        1.46891673      12.90930105       8.49649227
       149    1        9.14901794      10.29167184      13.55896427
       150    1       17.31924737       7.35383837       4.73620916
       151    1        0.32626284      16.17659348       4.08654594
       152    1        8.49649227       1.46891673      12.90930105
       153    1       13.55896427       9.14901794      10.29167184
       154    1        4.73620916      17.31924737       7.35383837
       155    1        4.08654594       0.32626284      16.17659348
       156    1       12.90930105       8.49649227       1.46891673
       157    1        7.35383837       4.08654594       8.49649227
       158    1       10.29167184      12.90930105       0.32626284
       159    1        1.46891673      13.55896427      17.31924737
       160    1       16.17659348       4.73620916       9.14901794
       161    1        8.49649227       7.35383837       4.08654594
       162    1        0.32626284      10.29167184      12.90930105
       163    1       17.31924737       1.46891673      13.55896427
       164    1        9.14901794      16.17659348       4.73620916
       165    1        4.08654594       8.49649227       7.35383837
       166    1       12.90930105       0.32626284      10.29167184
       167    1       13.55896427      17.31924737       1.46891673
       168    1        4.73620916       9.14901794      16.17659348
       169    1        1.48654565      10.66167913       9.29283767
       170    1       16.15896456       1.83892402      17.17542764
       171    1        7.33620945       6.98383108       0.47008257
       172    1       10.30930076      15.80658619       8.35267254
       173    1        9.29283767       1.48654565      10.66167913
       174    1       17.17542764      16.15896456       1.83892402
       175    1        0.47008257       7.33620945       6.98383108
       176    1        8.35267254      10.30930076      15.80658619
       177    1       10.66167913       9.29283767       1.48654565
       178    1        1.83892402      17.17542764      16.15896456
       179    1        6.98383108       0.47008257       7.33620945
       180    1       15.80658619       8.35267254      10.30930076
       181    1       16.15896456       6.98383108       8.35267254
       182    1        1.48654565      15.80658619       0.47008257
       183    1       10.30930076      10.66167913      17.17542764
       184    1        7.33620945       1.83892402       9.29283767
       185    1        8.35267254      16.15896456       6.98383108
       186    1        0.47008257       1.48654565      15.80658619
       187    1       17.17542764      10.30930076      10.66167913
       188    1        9.29283767       7.33620945       1.83892402
       189    1        6.98383108       8.35267254      16.15896456
       190    1       15.80658619       0.47008257       1.48654565
       191    1       10.66167913      17.17542764      10.30930076
       192    1        1.83892402       9.29283767       7.33620945
       193    1        8.03493883      10.69822333       7.71765315
       194    1        9.61057138       1.87546823       1.10510195
       195    1        0.78781627       6.94728688      16.54040826
       196    1       16.85769394      15.77004198       9.92785706
       197    1        7.71765315       8.03493883      10.69822333
       198    1        1.10510195       9.61057138       1.87546823
       199    1       16.54040826       0.78781627       6.94728688
       200    1        9.92785706      16.85769394      15.77004198
       201    1       10.69822333       7.71765315       8.03493883
       202    1        1.87546823       1.10510195       9.61057138
       203    1        6.94728688      16.54040826       0.78781627
       204    1       15.77004198       9.92785706      16.85769394
       205    1        9.61057138       6.94728688       9.92785706
       206    1        8.03493883      15.77004198      16.54040826
       207    1       16.85769394      10.69822333       1.10510195
       208    1        0.78781627       1.87546823       7.71765315
       209    1        9.92785706       9.61057138       6.94728688
       210    1       16.54040826       8.03493883      15.77004198
       211    1        1.10510195      16.85769394      10.69822333
       212    1        7.71765315       0.78781627       1.87546823
       213    1        6.94728688       9.92785706       9.61057138
       214    1       15.77004198      16.54040826       8.03493883
       215    1       10.69822333       1.10510195      16.85769394
       216    1        1.87546823       7.71765315       0.78781627
       217    1        3.34656330      14.29894691       5.47619181
       218    1       14.29894691       5.47619181       3.34656330
       219    1        5.47619181       3.34656330      14.29894691
       220    1       12.16931840      12.16931840      12.16931840
       221    1       14.29894691       3.34656330      12.16931840
       222    1        3.34656330      12.16931840      14.29894691
       223    1       12.16931840      14.29894691       3.34656330
       224    1        5.47619181       5.47619181       5.47619181
       225    1       13.51691819      13.51691819      13.51691819
       226    1        4.12859202       4.69416309      12.95134712
       227    1       12.95134712       4.12859202       4.69416309
       228    1        4.69416309      12.95134712       4.12859202
       229    1        4.12859202       4.12859202       4.12859202
       230    1       13.51691819      12.95134712       4.69416309
       231    1        4.69416309      13.51691819      12.95134712
       232    1       12.95134712       4.69416309      13.51691819
