 # Si100
 
         100  atoms
           1  atom types
 
      0.00000000      12.67697625  xlo xhi
      0.00000000      11.95132339  ylo yhi
      0.00000000      11.55706982  zlo zhi
      2.35949176      -3.02510356       2.59824049  xy xz yz
 
Masses
 
           1   28.08500000    # Si
 
Atoms # atomic
 
         1    1        3.11994485       1.25555571       2.12971163
         2    1        2.51436607       8.82847138       4.97528284
         3    1        4.94502547       2.60315075       1.25939655
         4    1        8.00818395       4.70639602       3.99963131
         5    1       11.47471613       6.53394535       0.26471700
         6    1        1.73202044       9.98214519       7.10574360
         7    1        4.57438111       2.07854779       8.87686351
         8    1        0.86377838       7.76916625       7.36626735
         9    1        8.19878287      11.45253608       6.98685661
        10    1        7.48462608      11.40042956      11.19441948
        11    1        3.57756228      13.65847449      10.59890609
        12    1       10.69430661       5.65339776       7.67142970
        13    1        1.90537323       5.15172936       7.09333882
        14    1       10.45752964       3.41088210       1.25374121
        15    1        6.70410049      14.40821673      11.18934859
        16    1        3.04066376      12.51362305       8.53172861
        17    1       -0.20617942       9.83442993      10.25009859
        18    1        6.79632871       2.71571392       4.67271309
        19    1        6.89701053       2.68614264       8.98072563
        20    1        8.32304406      10.14666216       0.61459399
        21    1       12.07672993      10.64626148       8.04275812
        22    1        6.11703067      12.07314583       7.78283511
        23    1        0.86963983       7.99364883       2.43656871
        24    1        6.05935378      11.00292063       1.42834831
        25    1        5.43088867       9.97341578       8.68964083
        26    1       10.67143718       9.22772213       6.59853536
        27    1        7.28582270       7.45278313      10.52147211
        28    1        6.16075970       9.99076240       4.68824406
        29    1        6.83485840       5.40441436       9.15640534
        30    1        1.54678882       2.42478343       7.24242086
        31    1        8.13651446       9.30790135       5.98685306
        32    1        2.77524117      10.60754718       1.52537523
        33    1        4.45675061       2.48388869       5.02590593
        34    1       12.70340185       6.34462872       3.99939381
        35    1        0.72592429       1.04658788       1.58039936
        36    1        9.00769902      11.16123342       9.29058454
        37    1        1.58378084       4.47244042       0.54718172
        38    1       -1.34851358       1.81679625       7.80378681
        39    1        1.68365478      12.59738534       4.01468752
        40    1       -0.93968053       4.82629923      11.38911658
        41    1        9.61702081       3.54219733       7.07558243
        42    1        4.54315171       9.14454191       6.37558226
        43    1        6.63584282      12.25622132       4.08033422
        44    1       -0.10497880       4.03358536       7.94202358
        45    1        8.52513216      11.51845563       2.70796292
        46    1        7.93180848       6.83298130       5.07814215
        47    1        3.22828411       7.16229618       7.64388585
        48    1        7.73635121       1.39682868       2.73875303
        49    1        8.31541923       6.08568859       7.31887885
        50    1        3.78558445       3.42117735       7.13320494
        51    1       11.29205657      11.18102699       5.24561114
        52    1        7.54746840       4.16912613      11.10661222
        53    1        9.53116893       9.78570793       3.98028247
        54    1        9.87944500      12.86607608       6.12228469
        55    1        9.99916230       3.69528847       4.73236803
        56    1        2.14506186       5.33710946       4.72392166
        57    1        9.28661675       7.57324464       3.03564861
        58    1        7.20530066       5.29733085       1.84992768
        59    1        5.79385376       8.92617601       2.57119389
        60    1       13.61634889       7.63412027       0.07859570
        61    1        7.18247547       8.22766374       8.09351758
        62    1        3.58745530       7.91727546       2.65375575
        63    1        5.08618575       6.82296281      11.47694245
        64    1        9.80922468       3.79846895      10.47313547
        65    1       -0.13898827       7.61904167       9.49079032
        66    1        3.31956213       7.60729111      10.00563617
        67    1       10.28209801       6.88635650       9.80242405
        68    1        5.07317663       5.42808685       7.52244254
        69    1        1.00800228       2.07218352       4.96200978
        70    1        3.65225021       6.00660797       1.03764192
        71    1        5.00322279       4.65437253       2.48573976
        72    1        5.92991966       9.60063637      11.04084625
        73    1       11.97845978      11.52842940       0.41961952
        74    1        7.16470792       2.06485039       0.49650917
        75    1        1.93232989      10.26225837      11.25374042
        76    1       11.71284809       7.14354833       6.05203551
        77    1       12.71444550       3.32514582       1.95521039
        78    1       11.65288256      11.02476903       2.82166183
        79    1        9.45307778       8.87769338       8.72008458
        80    1        5.69633884       7.04250019       5.87505840
        81    1        3.02658395      10.13568613       9.11726755
        82    1        4.18272281      11.92630312       6.34869174
        83    1        0.75814213      11.96639867       6.17683765
        84    1       10.05997760       1.92577752       3.18364902
        85    1       10.71706365      12.61951204      11.44363983
        86    1        7.53188622       7.63559849       1.39838753
        87    1        0.87040321       4.03435518      10.08861154
        88    1       10.77749420       5.72075605       2.41777818
        89    1       10.65008906      12.71066554       8.44199918
        90    1        1.24951553      10.19991696       3.37324795
        91    1       11.21171426       8.76531893       1.96741709
        92    1        2.64242448       3.22325879       3.65580305
        93    1        1.39669285      12.55258166      11.42343703
        94    1        1.40983614       6.69576695      11.02085171
        95    1        4.26574912       6.21235033       4.17466233
        96    1        3.70845865      10.80959255       4.04805624
        97    1       -0.17520320      13.48504052       9.87576648
        98    1        3.00330973       5.14414203       9.42288490
        99    1        7.20171400       3.92385084       6.95454766
       100    1       -0.38352026       3.94305056       4.21680888
