 # Si8
 
           8  atoms
           1  atom types
 
      0.00000000       7.20868060  xlo xhi
      0.00000000       3.72951769  ylo yhi
      0.00000000       6.31597900  zlo zhi
