 # Si8
 
           8  atoms
           1  atom types
 
      0.00000000       4.93489400  xlo xhi
      0.00000000       4.91373200  ylo yhi
      0.00000000       6.56246000  zlo zhi
     -2.21948500      -2.41890400      -1.42219700  xy xz yz
 
Masses
 
           1   28.08500000    # Si
 
Atoms # atomic
 
         1    1        1.37775311      -0.96182789       5.51849730
         2    1        2.07127333       0.12830648       1.67546166
         3    1       -0.63678434       1.88986200       4.42193648
         4    1       -0.09223191       1.10619490       0.96420912
         5    1       -0.99862423      -0.38837185       4.98948428
         6    1       -1.70119366       2.21644438       2.33703638
         7    1        1.41922710       0.80004391       3.89609969
         8    1       -2.78562863       4.30447869       2.59339232
