 # Ba8 Cu12 O24
 
          44  atoms
           3  atom types
 
      0.00000000       7.59311200  xlo xhi
      0.00000000       8.27177800  ylo yhi
      0.00000000      11.47088100  zlo zhi
      0.00000000       0.00000000       4.07513200  xy xz yz
 
Masses
 
           1   137.32700000    # Ba
           2   63.54600000    # Cu
           3   15.99900000    # O 
 
Atoms # atomic
 
         1    1        3.79655600       6.68908309       8.69124565
         2    1        3.79655600       1.81273105       2.96336446
         3    1        0.00000000       7.84572062       2.88189826
         4    1        0.00000000       3.64336468       2.84267932
         5    1        0.00000000       4.50118939       8.58898274
         6    1        3.79655600      10.53417895       8.50751655
         7    1        0.00000000       8.70354532       8.62820168
         8    1        3.79655600       5.65782691       2.77963536
         9    2        1.89268947       7.54358789       5.73861793
        10    2        5.67282157       9.59451975      11.45400734
        11    2        1.89268947       4.80332211       5.73226307
        12    2        1.92029043       2.75239025       0.01687367
        13    2        5.70042253       4.80332211       5.73226307
        14    2        1.87562015       0.00000000       0.00000000
        15    2        1.92029043       9.59451975      11.45400734
        16    2        5.71749185       0.00000000       0.00000000
        17    2        5.70042253       7.54358789       5.73861793
        18    2        5.67282157       2.75239025       0.01687367
        19    2        5.66447674       2.03756600       5.73544050
        20    2        1.92863526       2.03756600       5.73544050
        21    3        5.82142636       1.37727798       1.29034793
        22    3        5.67882772       6.88784457       1.25616471
        23    3        1.77938505       6.17479636       4.45537048
        24    3        5.68729404       8.92802802       4.47112000
        25    3        5.81372695       6.17211364       7.01551052
        26    3        5.67882772       5.45906543      10.21471629
        27    3        1.91428428       6.88784457       1.25616471
        28    3        1.77168564      10.96963202      10.18053307
        29    3        2.03663969       4.14718813       1.26968888
        30    3        1.77168564       1.37727798       1.29034793
        31    3        2.04440744       8.92621540       7.00753826
        32    3        5.54870456       8.92621540       7.00753826
        33    3        5.82142636      10.96963202      10.18053307
        34    3        2.04440744       3.42069460       4.46334274
        35    3        5.55647231       4.14718813       1.26968888
        36    3        5.68729404       3.41888198       6.99976100
        37    3        2.03663969       8.19972187      10.20119213
        38    3        5.55647231       8.19972187      10.20119213
        39    3        1.90581796       3.41888198       6.99976100
        40    3        1.91428428       5.45906543      10.21471629
        41    3        5.54870456       3.42069460       4.46334274
        42    3        5.81372695       6.17479636       4.45537048
        43    3        1.90581796       8.92802802       4.47112000
        44    3        1.77938505       6.17211364       7.01551052
