 # Fe1 Cl2
 
           3  atoms
           2  atom types
 
      0.00000000       3.51415878  xlo xhi
      0.00000000       3.04335033  ylo yhi
      0.00000000       6.18112800  zlo zhi
