 # Fe1 Cl2
 
           3  atoms
           2  atom types
 
      0.00000000       6.97431385  xlo xhi
      0.00000000       3.41010338  ylo yhi
      0.00000000       3.01738600  zlo zhi
