 # La12 Cu12 O30
 
          54  atoms
           3  atom types
 
      0.00000000       7.22140170  xlo xhi
      0.00000000       3.64096655  ylo yhi
      0.00000000      26.87982400  zlo zhi
