 # La4 Cu4 O10
 
          18  atoms
           3  atom types
 
      0.00000000       6.66076300  xlo xhi
      0.00000000       6.66076300  ylo yhi
      0.00000000       5.59504300  zlo zhi
 
Masses
 
           1   138.90547000    # La
           2   63.54600000    # Cu
           3   15.99900000    # O 
 
Atoms # atomic
 
         1    1        4.88805421       0.73827897       2.79752150
         2    1        5.92248403       4.88805421       0.00000000
         3    1        1.77270879       5.92248403       2.79752150
         4    1        0.73827897       1.77270879       0.00000000
         5    2        3.92702601       2.08409280       0.00000000
         6    2        2.08409280       2.73373699       2.79752150
         7    2        2.73373699       4.57667020       0.00000000
         8    2        4.57667020       3.92702601       2.79752150
         9    3        3.95144436       5.24750895       1.44848949
        10    3        5.24750895       2.70931864       4.24601099
        11    3        2.70931864       1.41325405       4.14655351
        12    3        2.70931864       1.41325405       1.44848949
        13    3        0.00000000       0.00000000       4.19628225
        14    3        1.41325405       3.95144436       4.24601099
        15    3        1.41325405       3.95144436       1.34903201
        16    3        3.95144436       5.24750895       4.14655351
        17    3        0.00000000       0.00000000       1.39876075
        18    3        5.24750895       2.70931864       1.34903201
