 # La6 Cu6 O15
 
          27  atoms
           3  atom types
 
      0.00000000       3.76801600  xlo xhi
      0.00000000       6.97089400  ylo yhi
      0.00000000      13.46317000  zlo zhi
     -1.86771900      -1.65727000      -3.06949000  xy xz yz
 
Masses
 
           1   138.90547000    # La
           2   63.54600000    # Cu
           3   15.99900000    # O 
 
Atoms # atomic
 
         1    1        2.05126326       0.13801750       6.22975880
         2    1       -1.65389269       2.75601284      10.83283009
         3    1        1.91661627      -0.90380237       9.83539768
         4    1        1.89691969       1.14539116       2.63033991
         5    1       -1.67358928       4.80520638       3.62777233
         6    1       -1.80823626       3.76338651       7.23341120
         7    2        0.00788633       3.41219711       1.06744090
         8    2        0.11881577       2.47431380       4.87108261
         9    2        1.42534485       5.88030153       0.77977334
        10    2        0.12421123       1.42709021       8.59208739
        11    2       -1.18231785      -1.97889752      12.68339666
        12    2        0.23514067       0.48920689      12.39572910
        13    3        0.22090687       0.08856864       4.37847868
        14    3       -1.64698336       0.02953976      12.50179196
        15    3        0.32053067       3.03329753      12.41288118
        16    3        0.07490681       2.97420338       2.97774355
        17    3        2.00561571       2.48750080       4.87417914
        18    3        0.04855072      -0.92263117       7.84852997
        19    3        0.12151350       1.95070200       6.73158500
        20    3        0.26034412       5.79053245       2.35628362
        21    3       -1.76258871       1.41390320       8.58899086
        22    3       -0.01731712      -1.88912845      11.10688638
        23    3        0.16812019       0.92720062      10.48542645
        24    3        0.19447628       4.82403517       5.61464003
        25    3       -0.07750367       0.86810647       1.05028882
        26    3        1.89001036       3.87186425       0.96137804
        27    3        0.02212013       3.81283536       9.08469132
