 # Ca1 Ir1 O3
 
           5  atoms
           3  atom types
 
      0.00000000       3.95347500  xlo xhi
      0.00000000       3.95347500  ylo yhi
      0.00000000       3.95347500  zlo zhi
 
Masses
 
           1   40.07800000    # Ca
           2   192.21700000    # Ir
           3   15.99900000    # O 
 
Atoms # atomic
 
         1    1        0.00000000       0.00000000       0.00000000
         2    2        1.97673750       1.97673750       1.97673750
         3    3        1.97673750       1.97673750       0.00000000
         4    3        1.97673750       0.00000000       1.97673750
         5    3        0.00000000       1.97673750       1.97673750
