 # Li2 V2 Cu2 O8
 
          14  atoms
           4  atom types
 
      0.00000000       5.08910440  xlo xhi
      0.00000000       4.76942489  ylo yhi
      0.00000000       6.39651800  zlo zhi
     -1.77526612       0.00000000       0.00000000  xy xz yz
 
Masses
 
           1   6.94000000    # Li
           2   50.94150000    # V 
           3   63.54600000    # Cu
           4   15.99900000    # O 
 
Atoms # atomic
 
         1    1        2.81801368       1.57797376       4.79738850
         2    1        0.49582459       3.19145113       1.59912950
         3    2        2.69807254       1.66130993       1.59912950
         4    2        0.61576574       3.10811497       4.79738850
         5    3        0.00000000       0.00000000       0.00000000
         6    3        0.00000000       0.00000000       3.19825900
         7    4        3.50592658       1.10000585       0.16812608
         8    4        3.50592658       1.10000585       3.03013292
         9    4        1.00338603       1.15480177       1.59912950
        10    4        0.73224340       1.34319405       4.79738850
        11    4        2.58159488       3.42623084       1.59912950
        12    4        2.31045225       3.61462312       4.79738850
        13    4       -0.19208830       3.66941904       6.22839192
        14    4       -0.19208830       3.66941904       3.36638508
