 # Ta8 Co4 O24
 
          36  atoms
           3  atom types
 
      0.00000000       4.80487601  xlo xhi
      0.00000000      10.38346596  ylo yhi
      0.00000000       8.52048790  zlo zhi
     -0.00091536       0.00023307       4.44576032  xy xz yz
 
Masses
 
           1   180.94788000    # Ta
           2   58.93319500    # Co
           3   15.99900000    # O 
 
Atoms # atomic
 
         1    1        2.40273958       2.49305850       1.40868374
         2    1        2.40253422       4.71611780       5.66960933
         3    1       -0.00036747       7.68475409       1.40928870
         4    1        4.80417821       9.90738379       5.66907254
         5    1        2.40145414      12.33616779       7.11180416
         6    1        2.40165950      10.11310848       2.85087857
         7    1        0.00001551       4.92184249       2.85141536
         8    1        4.80456119       7.14447219       7.11119920
         9    2        2.40198033       5.19173298       0.00000000
        10    2        0.00011653       2.22288016       4.26024395
        11    2        2.40209686       7.41461314       4.26024395
        12    2        0.00000000       0.00000000       0.00000000
        13    3        0.90517951       8.94518044       7.19324298
        14    3        0.90510626       6.72180342       2.93286270
        15    3        3.89901902       5.88404584       1.32724492
        16    3        3.89908747       8.10742286       5.58762520
        17    3        1.49702492       1.53057768       2.93299903
        18    3        1.49625016      14.13640764       7.19314925
        19    3        3.30794357       0.69281864       1.32733865
        20    3        3.30716881      13.29864860       5.58748887
        21    3        0.98230910       1.89515521       0.11941464
        22    3        0.98335289       4.11892098       4.37956486
        23    3        3.82194913       3.20896967       2.63657978
        24    3        3.82088834       5.43205083       6.89535820
        25    3        1.41834549       7.08789392       0.11937204
        26    3        1.41927893       9.31001006       4.37980344
        27    3        3.38475828      10.62364947       6.89701118
        28    3        3.38560742       8.40080261       2.63543803
        29    3        3.82187981      12.93406663       8.40106474
        30    3        3.82084083      10.71030530       4.14092304
        31    3        0.98224459      11.62025661       5.88390812
        32    3        0.98330538       9.39717546       1.62512970
        33    3        3.38584823       7.74133236       8.40111587
        34    3        3.38491479       5.51921622       4.14068446
        35    3        1.41943544       4.20557681       1.62347672
        36    3        1.41858630       6.42842367       5.88504987
