 # Li4 Cu8 O8
 
          20  atoms
           3  atom types
 
      0.00000000       2.88433400  xlo xhi
      0.00000000       5.73093800  ylo yhi
      0.00000000      12.58707300  zlo zhi
 
Masses
 
           1   6.94000000    # Li
           2   63.54600000    # Cu
           3   15.99900000    # O 
 
Atoms # atomic
 
         1    1        2.16325050       2.10187882      11.67779543
         2    1        0.72108350       3.62905918       0.90927757
         3    1        2.16325050       4.96734782       7.20281407
         4    1        0.72108350       0.76359018       5.38425893
         5    2        0.72108350       0.70965059       1.26119954
         6    2        0.72108350       3.57511959       5.03233696
         7    2        2.16325050       2.15581841       7.55473604
         8    2        0.72108350       0.69054364       9.34460523
         9    2        2.16325050       5.04039436       3.24246777
        10    2        0.72108350       3.55601264       9.53600427
        11    2        2.16325050       2.17492536       3.05106873
        12    2        2.16325050       5.02128741      11.32587346
        13    3        2.16325050       5.07304924       1.38119211
        14    3        0.72108350       3.52335776       7.67472861
        15    3        2.16325050       2.20758024       4.91234439
        16    3        0.72108350       0.76540116       7.46472588
        17    3        2.16325050       4.96553684       5.12234712
        18    3        0.72108350       3.63087016      11.41588362
        19    3        0.72108350       0.65788876      11.20588089
        20    3        2.16325050       2.10006784       1.17118938
