 # Cd1 Cl2
 
           3  atoms
           2  atom types
 
      0.00000000       4.20160666  xlo xhi
      0.00000000       4.20158085  ylo yhi
      0.00000000       4.99360600  zlo zhi
      0.01472760       0.09366162       0.09333389  xy xz yz
 
Masses
 
           1   112.41100000    # Cd
           2   35.45000000    # Cl
 
Atoms # atomic
 
         1    1        0.68081819       3.53315135       0.00000000
         2    2        2.89328247       3.54736495       3.63829639
         3    2        0.75251111       1.41408438       1.35530961
