 # Cd1 Cl2
 
           3  atoms
           2  atom types
 
      0.00000000       3.92279914  xlo xhi
      0.00000000       3.39187816  ylo yhi
      0.00000000       6.28303800  zlo zhi
