 # Ba4 V8 Co8 O32
 
          52  atoms
           4  atom types
 
      0.00000000       9.91269432  xlo xhi
      0.00000000       7.68672711  ylo yhi
      0.00000000       8.95280907  zlo zhi
