 # Mn2 F4
 
           6  atoms
           2  atom types
 
      0.00000000       3.34818700  xlo xhi
      0.00000000       4.96199200  ylo yhi
      0.00000000       4.96199200  zlo zhi
 
Masses
 
           1   54.93804500    # Mn
           2   18.99840320    # F 
 
Atoms # atomic
 
         1    1        0.00000000       0.00000000       0.00000000
         2    1        1.67409350       2.48099600       2.48099600
         3    2        0.00000000       3.44820237       3.44820237
         4    2        1.67409350       3.99478563       0.96720637
         5    2        0.00000000       1.51378963       1.51378963
         6    2        1.67409350       0.96720637       3.99478563
