 # Mn4 F8
 
          12  atoms
           2  atom types
 
      0.00000000       5.01881300  xlo xhi
      0.00000000       5.46316700  ylo yhi
      0.00000000       5.93736800  zlo zhi
 
Masses
 
           1   54.93804500    # Mn
           2   18.99840320    # F 
 
Atoms # atomic
 
         1    1        2.50940650       4.09737525       3.96609651
         2    1        0.00000000       1.36579175       4.93995549
         3    1        2.50940650       1.36579175       1.97127149
         4    1        0.00000000       4.09737525       0.99741251
         5    2        3.64621281       0.43580776       3.61636773
         6    2        1.13680631       5.02735924       5.28968427
         7    2        3.88200669       3.16739126       5.28968427
         8    2        1.37260019       2.29577574       3.61636773
         9    2        3.64621281       3.16739126       2.32100027
        10    2        1.13680631       2.29577574       0.64768373
        11    2        3.88200669       0.43580776       0.64768373
        12    2        1.37260019       5.02735924       2.32100027
