 # Na2 V4 O10
 
          16  atoms
           3  atom types
 
      0.00000000       5.89915652  xlo xhi
      0.00000000       3.50599253  ylo yhi
      0.00000000      11.42386300  zlo zhi
