 # Na8 V16 O40
 
          64  atoms
           3  atom types
 
      0.00000000      10.63918125  xlo xhi
      0.00000000       6.84936241  ylo yhi
      0.00000000      11.51513000  zlo zhi
