 # Sr2 Ti2 O6
 
          10  atoms
           3  atom types
 
      0.00000000       5.57861380  xlo xhi
      0.00000000       5.57861142  ylo yhi
      0.00000000       3.94285145  zlo zhi
