 # Sr2 Ti2 O6
 
          10  atoms
           3  atom types
 
      0.00000000       5.57946045  xlo xhi
      0.00000000       5.57941121  ylo yhi
      0.00000000       3.93697823  zlo zhi
