 # K4 V6 O16
 
          26  atoms
           3  atom types
 
      0.00000000       9.02440700  xlo xhi
      0.00000000       9.02440700  ylo yhi
      0.00000000       5.50644300  zlo zhi
 
Masses
 
           1   39.09830000    # K 
           2   50.94150000    # V 
           3   15.99900000    # O 
 
Atoms # atomic
 
         1    1        1.53478090       6.04698440       0.97688153
         2    1        6.04698440       7.48962610       0.97688153
         3    1        2.97742260       1.53478090       0.97688153
         4    1        7.48962610       2.97742260       0.97688153
         5    2        3.30014442       7.81234792       3.54113843
         6    2        1.21205908       3.30014442       3.54113843
         7    2        5.72426258       1.21205908       3.54113843
         8    2        7.81234792       5.72426258       3.54113843
         9    2        0.00000000       0.00000000       3.49551204
        10    2        4.51220350       4.51220350       3.49551204
        11    3        4.51220350       4.51220350       5.13796835
        12    3        0.00000000       0.00000000       5.13796835
        13    3        0.00000000       4.51220350       2.89095416
        14    3        4.51220350       0.00000000       2.89095416
        15    3        7.83378089       5.70282961       5.20924926
        16    3        5.70282961       1.19062611       5.20924926
        17    3        3.32157739       7.83378089       5.20924926
        18    3        1.19062611       3.32157739       5.20924926
        19    3        6.24475428       5.29581081       2.91289733
        20    3        2.77965272       3.72859619       2.91289733
        21    3        0.78360731       1.73255078       2.91289733
        22    3        1.73255078       8.24079969       2.91289733
        23    3        7.29185622       0.78360731       2.91289733
        24    3        8.24079969       7.29185622       2.91289733
        25    3        5.29581081       2.77965272       2.91289733
        26    3        3.72859619       6.24475428       2.91289733
