 # Fe2 Cu2 O4
 
           8  atoms
           3  atom types
 
      0.00000000       3.06531864  xlo xhi
      0.00000000       2.65464344  ylo yhi
      0.00000000      11.54583800  zlo zhi
