 # Ni1 H16 C4 S4 N8 Cl2
 
          35  atoms
           6  atom types
 
      0.00000000       8.21268178  xlo xhi
      0.00000000       7.54714496  ylo yhi
      0.00000000       6.85733206  zlo zhi
     -3.23863320      -2.48702429      -3.77357248  xy xz yz
 
Masses
 
           1   58.69340000    # Ni
           2   1.00800000    # H 
           3   12.01100000    # C 
           4   32.06000000    # S 
           5   14.00700000    # N 
           6   35.45000000    # Cl
 
Atoms # atomic
 
         1    1        0.00214879       0.00326037       0.00000000
         2    2        0.73641203       5.36153706       2.41133967
         3    2        2.14962546      -0.98254016       4.44599238
         4    2        4.69992399       2.74933057       2.33555930
         5    2       -1.81388650       1.62966633       4.52177276
         6    2        0.68268842       3.87210046       1.48280206
         7    2        0.80207503      -1.61926259       5.37453000
         8    2        3.22398714       2.19722295       1.56078364
         9    2       -1.73922369       0.05561491       5.29654842
        10    2       -1.21248201       3.39166808       0.13660491
        11    2        1.10793572      -3.55030906       6.72072715
        12    2        1.30529248       1.73229996       2.87881086
        13    2       -1.40985022      -1.89093339       3.97852120
        14    2        3.30191089       0.88284992       6.81019476
        15    2        1.99623675       7.15605190       0.04713730
        16    2        1.36620102       2.15860044       4.58617682
        17    2        3.93194662       5.88030139       2.27115524
        18    3       -0.90136064       5.14617173       1.20107542
        19    3        2.59756095      -2.57251983       5.65625663
        20    3        3.09447266       2.51266342       3.58453319
        21    3       -1.39827235       0.06098848       3.27279887
        22    4        1.74830241      -0.81658599       1.51130113
        23    4        4.28581075      -2.48896539       5.34603093
        24    4       -4.30954055       3.17591784       4.94818910
        25    4       -1.10766127       1.06567574       1.90914296
        26    5        0.22788648       4.73350139       1.79168372
        27    5        1.77301907      -1.69751894       5.06564834
        28    5        3.73996719       2.41882222       2.41454891
        29    5       -1.73906165       0.61716023       4.44278315
        30    5       -1.54711680       4.32701216       0.37136567
        31    5        2.09943515      -3.48897719       6.48596638
        32    5        1.82975003       2.10144214       3.67293791
        33    5       -1.27743167      -1.26340716       3.18439415
        34    6        3.64846463       5.53583083       0.00000000
        35    6        1.39910536       2.12286848       0.00000000
