 # Cs6 Co2 Cl10
 
          18  atoms
           3  atom types
 
      0.00000000       9.90680006  xlo xhi
      0.00000000       9.87025625  ylo yhi
      0.00000000       6.69785685  zlo zhi
