 # Sr2 Cu1 Cl2 O2
 
           7  atoms
           4  atom types
 
      0.00000000       8.51377152  xlo xhi
      0.00000000       5.32341333  ylo yhi
      0.00000000       2.82108028  zlo zhi
