 # Sr2 Cu1 Cl2 O2
 
           7  atoms
           4  atom types
 
      0.00000000       4.93875300  xlo xhi
      0.00000000       4.93875300  ylo yhi
      0.00000000       6.11697800  zlo zhi
 
Masses
 
           1   87.62000000    # Sr
           2   63.54600000    # Cu
           3   35.45000000    # Cl
           4   15.99900000    # O 
 
Atoms # atomic
 
         1    1        0.00000000       2.46937650       3.05848900
         2    1        2.46937650       0.00000000       3.05848900
         3    2        2.46937650       2.46937650       0.00000000
         4    3        0.00000000       2.46937650       0.00000000
         5    3        2.46937650       0.00000000       0.00000000
         6    4        0.00000000       0.00000000       3.05848900
         7    4        2.46937650       2.46937650       3.05848900
