 # Mn8 Si4 Se16
 
          28  atoms
           3  atom types
 
      0.00000000       6.27369200  xlo xhi
      0.00000000       7.83630500  ylo yhi
      0.00000000      13.41942000  zlo zhi
 
Masses
 
           1   54.93804500    # Mn
           2   28.08500000    # Si
           3   78.96000000    # Se
 
Atoms # atomic
 
         1    1        3.11095447       5.87722875       3.13364928
         2    1        6.24780047       1.95907625       3.57606072
         3    1        3.16273753       1.95907625      10.28577072
         4    1        0.02589153       5.87722875       9.84335928
         5    1        3.13684600       3.91815250       6.70971000
         6    1        0.00000000       3.91815250       0.00000000
         7    1        3.13684600       0.00000000       6.70971000
         8    1        0.00000000       0.00000000       0.00000000
         9    2        3.72410121       5.87722875      12.23008364
        10    2        0.58725521       1.95907625       7.89904636
        11    2        2.54959079       1.95907625       1.18933636
        12    2        5.68643679       5.87722875       5.52037364
        13    3        1.69868367       5.87722875       5.46347530
        14    3        4.83552967       1.95907625       1.24623470
        15    3        4.57500833       1.95907625       7.95594470
        16    3        1.43816233       5.87722875      12.17318530
        17    3        4.75114851       5.87722875       7.63917929
        18    3        1.61430251       1.95907625      12.48995071
        19    3        1.52254349       1.95907625       5.78024071
        20    3        4.65938949       5.87722875       0.92946929
        21    3        4.69765901       7.68244699       4.45901830
        22    3        1.56081301       0.15385801       2.25069170
        23    3        1.57603299       3.76429449       8.96040170
        24    3        4.71287899       4.07201051      11.16872830
        25    3        1.57603299       0.15385801       8.96040170
        26    3        4.71287899       7.68244699      11.16872830
        27    3        4.69765901       4.07201051       4.45901830
        28    3        1.56081301       3.76429449       2.25069170
