 # Si46
 
          46  atoms
           1  atom types
 
      0.00000000      10.22736000  xlo xhi
      0.00000000      10.22736000  ylo yhi
      0.00000000      10.22736000  zlo zhi
 
Masses
 
           1   28.08500000    # Si
 
Atoms # atomic
 
         1    1        0.00000000       9.02891796       3.14890187
         2    1        0.00000000       1.19844204       7.07845813
         3    1        0.00000000       1.19844204       3.14890187
         4    1        0.00000000       9.02891796       7.07845813
         5    1        3.14890187       0.00000000       9.02891796
         6    1        3.91523796       5.11368000       1.96477813
         7    1        7.07845813       0.00000000       1.19844204
         8    1        6.31212204       5.11368000       8.26258187
         9    1        3.14890187       0.00000000       1.19844204
        10    1        6.31212204       5.11368000       1.96477813
        11    1        7.07845813       0.00000000       9.02891796
        12    1        3.91523796       5.11368000       8.26258187
        13    1        9.02891796       3.14890187       0.00000000
        14    1        5.11368000       8.26258187       6.31212204
        15    1        1.19844204       7.07845813       0.00000000
        16    1        5.11368000       1.96477813       3.91523796
        17    1        9.02891796       7.07845813       0.00000000
        18    1        5.11368000       1.96477813       6.31212204
        19    1        1.19844204       3.14890187       0.00000000
        20    1        5.11368000       8.26258187       3.91523796
        21    1        1.96477813       3.91523796       5.11368000
        22    1        8.26258187       6.31212204       5.11368000
        23    1        1.96477813       6.31212204       5.11368000
        24    1        8.26258187       3.91523796       5.11368000
        25    1        2.55684000       5.11368000       0.00000000
        26    1        7.67052000       5.11368000       0.00000000
        27    1        0.00000000       2.55684000       5.11368000
        28    1        0.00000000       7.67052000       5.11368000
        29    1        5.11368000       0.00000000       2.55684000
        30    1        5.11368000       0.00000000       7.67052000
        31    1        8.34941216       8.34941216       8.34941216
        32    1        1.87794784       1.87794784       1.87794784
        33    1        1.87794784       1.87794784       8.34941216
        34    1        1.87794784       8.34941216       1.87794784
        35    1        3.23573216       3.23573216       6.99162784
        36    1        8.34941216       8.34941216       1.87794784
        37    1        8.34941216       1.87794784       8.34941216
        38    1        6.99162784       6.99162784       3.23573216
        39    1        8.34941216       1.87794784       1.87794784
        40    1        6.99162784       6.99162784       6.99162784
        41    1        1.87794784       8.34941216       8.34941216
        42    1        3.23573216       3.23573216       3.23573216
        43    1        3.23573216       6.99162784       3.23573216
        44    1        6.99162784       3.23573216       6.99162784
        45    1        6.99162784       3.23573216       3.23573216
        46    1        3.23573216       6.99162784       6.99162784
