 # Si41
 
          41  atoms
           1  atom types
 
      0.00000000      10.81705566  xlo xhi
      0.00000000      10.19841788  ylo yhi
      0.00000000       8.83208896  zlo zhi
     -3.60568522      -3.60568522      -5.09920894  xy xz yz
 
Masses
 
           1   28.08500000    # Si
 
Atoms # atomic
 
         1    1        6.61749245       3.31953403       1.17120565
         2    1       -0.59387438       4.45372558       5.37168534
         3    1        3.01181444       7.52435192       2.28920680
         4    1        3.01181444      -1.77966471       7.66088331
         5    1        6.61749245      -0.64547316       3.46040362
         6    1       -0.59387438       2.42515318       6.54288216
         7    1       -2.68182213       2.24634432       7.66088331
         8    1       -2.81438875       6.02387399       3.46040362
         9    1        2.48441447       0.24847425       6.54288216
        10    1        0.92385588       7.34554306       1.17120565
        11    1        4.39697087       0.92466505       5.37168534
        12    1        6.09008887       5.34768319       2.28920680
        13    1        4.39697087       4.18968344       3.48662610
        14    1        6.09008887      -0.69133035       5.77583290
        15    1        0.92385588      -2.65847768       6.94702972
        16    1        2.48441447       5.54206504       3.48662610
        17    1       -2.68182213       5.51134740       5.77583290
        18    1       -2.81438875      -0.01513955       6.94702972
        19    1       -1.12127075       0.44285610       5.34546287
        20    1        4.52954470       0.41214866       3.05625606
        21    1        0.79128565       5.08406939       1.88505924
        22    1        0.79128565      -0.90952550       5.34546287
        23    1       -1.12127075       4.40787859       3.05625606
        24    1        4.52954470       2.44072106       1.88505924
        25    1       -0.78378943      -1.10844564       1.91988417
        26    1       -0.78378943       2.21689129       0.00000000
        27    1        2.82189579       3.99076330       6.91220479
        28    1        2.35136829       0.00000000       0.00000000
        29    1        0.00000000       0.00000000       0.00000000
        30    1       -2.10030803       2.52589315       1.97146357
        31    1        1.50537719       5.54359990       5.65886954
        32    1        5.11106241       7.22813377       1.20175585
        33    1        5.11106241      -2.57331579       6.86062539
        34    1       -2.10030803       0.44439096       3.17321942
        35    1        1.50537719       2.12892483       7.63033311
        36    1       -4.12983286       3.96098392       6.86062539
        37    1        1.11907849      -1.83205908       3.17321942
        38    1        3.08153758      -1.13822502       1.97146357
        39    1        4.72476371       3.26714986       5.65886954
        40    1        3.08153758       2.27645005       0.00000000
        41    1        1.11907849       3.66411817       0.00000000
