 # Si58
 
          58  atoms
           1  atom types
 
      0.00000000      10.01843953  xlo xhi
      0.00000000       8.67622341  ylo yhi
      0.00000000      16.11677800  zlo zhi
     -5.00921929       0.00000000       0.00000000  xy xz yz
 
Masses
 
           1   28.08500000    # Si
 
Atoms # atomic
 
         1    1        3.11402684       5.37581405       3.29899164
         2    1        8.10779806       3.29149020       3.29899164
         3    1        3.80583486       0.00891916       3.29899164
         4    1        6.21260467       0.00891916       3.29899164
         5    1        1.91064183       3.29149020       3.29899164
         6    1        6.90441327       5.37581405       3.29899164
         7    1        1.89519339       3.30040936      12.81778636
         8    1       -3.09857782       5.38473321      12.81778636
         9    1        1.20338537       8.66730425      12.81778636
        10    1       -1.20338443       8.66730425      12.81778636
        11    1        3.09857841       5.38473321      12.81778636
        12    1       -1.89519304       3.30040936      12.81778636
        13    1        2.56021770       8.67059254       5.25863068
        14    1        1.21962491       2.12371391       5.25863068
        15    1       -3.77984167       6.55814037       5.25863068
        16    1        3.77984238       6.55814037       5.25863068
        17    1       -1.21962468       2.12371391       5.25863068
        18    1       -2.56021676       8.67059254       5.25863068
        19    1        2.44900253       0.00563087      10.85814732
        20    1        3.78959533       6.55250950      10.85814732
        21    1        8.78906190       2.11808304      10.85814732
        22    1        1.22937786       2.11808304      10.85814732
        23    1        6.22884491       6.55250950      10.85814732
        24    1        7.56943700       0.00563087      10.85814732
        25    1        2.46036877       5.78240791       7.12184303
        26    1       -1.23169180       3.65427781       7.12184303
        27    1       -1.22867602       7.91576111       7.12184303
        28    1        1.22867688       7.91576111       7.12184303
        29    1        1.23169220       3.65427781       7.12184303
        30    1       -2.46036814       5.78240791       7.12184303
        31    1        2.54885147       2.89381550       8.99493497
        32    1        6.24091204       5.02194561       8.99493497
        33    1        6.23789626       0.76046231       8.99493497
        34    1        3.78054335       0.76046231       8.99493497
        35    1        3.77752804       5.02194561       8.99493497
        36    1        7.46958838       2.89381550       8.99493497
        37    1        3.00433506       7.51870242       0.00833237
        38    1        0.00000013       2.31504199       0.00833237
        39    1       -3.00433425       7.51870242       0.00833237
        40    1        2.00488517       1.15752099      16.10844563
        41    1        5.00922011       6.36118142      16.10844563
        42    1        8.01355448       1.15752099      16.10844563
        43    1        1.87311295       6.86559102      14.15660711
        44    1        0.00000020       3.62126478      14.15660711
        45    1       -1.87311220       6.86559102      14.15660711
        46    1        3.13610729       1.81063239       1.96017089
        47    1        5.00922004       5.05495864       1.96017089
        48    1        6.88233244       1.81063239       1.96017089
        49    1        1.87580791       6.86715274       1.98244428
        50    1       -0.00000481       3.61815001       1.98244428
        51    1       -1.87581718       6.86715274       1.98244428
        52    1        3.13341233       1.80907067      14.13433372
        53    1        5.00922505       5.05807340      14.13433372
        54    1        6.88503742       1.80907067      14.13433372
        55    1       -0.00000469       5.78415183       1.17483253
        56    1        5.00922493       2.89207158      14.94194547
        57    1       -0.00000469       5.78415183      14.96634627
        58    1        5.00922493       2.89207158       1.15043173
