 # Si100
 
         100  atoms
           1  atom types
 
      0.00000000      11.69287432  xlo xhi
      0.00000000      13.30561466  ylo yhi
      0.00000000      12.34774976  zlo zhi
      1.73822266       2.06976253      -1.97072529  xy xz yz
 
Masses
 
           1   28.08500000    # Si
 
Atoms # atomic
 
         1    1       11.96245329       7.07425760       2.96826754
         2    1        2.63927025       5.70919431       7.39535898
         3    1        7.02001214      10.53359138       6.96135410
         4    1        8.50773089       5.59790120       2.66344432
         5    1        6.57980901      10.98814682       1.51892250
         6    1        6.41008299       1.04478536       9.00679725
         7    1       12.99206106       7.07199014      10.60882233
         8    1        7.76434527      -0.26884790       3.03168990
         9    1        9.81163447      11.54168515       4.76374815
        10    1        8.72623843       5.60293674      11.97712723
        11    1       10.80805647       2.94515192      11.01292813
        12    1        5.94435827       4.45078951       5.70575662
        13    1       12.13539819      11.34088005       4.82981577
        14    1       10.21292077       8.56794668       8.34702241
        15    1        8.41776237       1.89727494       3.83916618
        16    1        5.77601270       0.73568902       6.31625184
        17    1        3.90691013       6.93450723       4.86787500
        18    1        7.22143541       3.24005486       9.53829861
        19    1        7.25787264       2.54347950       5.86944975
        20    1        6.76513307       9.64129036       3.45810685
        21    1       12.13222699      -0.15074572       4.60417596
        22    1       12.59857793      -0.25720355      11.66512812
        23    1       12.80767718       3.67977362       8.01735650
        24    1        3.24180181      10.76239145       7.07211416
        25    1        4.49908893       0.21154601       4.32046937
        26    1        3.63619372       7.79448650      10.48282145
        27    1       12.62163152       1.59683378      10.22309839
        28    1        5.88919573      -0.19899548      10.95941236
        29    1        8.79437670      12.10805448       6.81201288
        30    1        9.71722379       8.61056914       0.25485928
        31    1       12.65489628       9.20449030       8.09915368
        32    1       12.04155885       5.67968384       6.68959124
        33    1       12.24294473       9.44585828      11.06642315
        34    1        7.31710742       5.63002594       9.98001737
        35    1        2.76864770       9.50754332       2.91718823
        36    1        9.09419829       9.43723658       4.03887930
        37    1       10.63105027       4.17585768       8.94465263
        38    1        5.60190649      -0.14439490       2.16753264
        39    1        6.23061910       9.79141338       9.13947703
        40    1       10.71213088       8.96375372       2.34801117
        41    1        5.59978691       4.24442155       1.09539493
        42    1        5.14882561      11.84515590       8.06932868
        43    1        8.85642276      -0.59948844       8.25192140
        44    1        4.70736223      11.97028655       0.37442613
        45    1        2.06932941       3.52029789       4.09073541
        46    1        2.36187440       0.82961085       1.19469146
        47    1        4.08716521       0.85163590       8.09011994
        48    1        1.66948519       6.40789324       1.24564877
        49    1        4.47030774       4.11595437       9.77042902
        50    1       13.87773662       4.85384764       9.81643574
        51    1        5.19852201       6.07873296      10.99195572
        52    1        2.13560735       1.72683501       7.03199521
        53    1        8.31060506      -0.11287264      10.53913447
        54    1       11.58243747       3.91804792       5.04108318
        55    1        5.87118508      11.22000641       4.94579485
        56    1       13.99670750       3.56455067      11.91515499
        57    1        8.57341331       2.15185128      11.19612280
        58    1        8.36314544       6.92104660       8.28395171
        59    1        4.58075846       9.49573481      11.82304954
        60    1        3.46039912      -0.21702567      11.53350012
        61    1        8.65586360       6.50059129       0.39334745
        62    1       10.38856801       2.00522413       1.72704481
        63    1       11.24975235       6.49398897       8.87337870
        64    1       11.99827922       0.71667657       8.11780014
        65    1       13.64020928      11.24007592      10.28453992
        66    1        8.41435893       2.38182820       0.37624433
        67    1        6.83271161       0.62552247       0.17452828
        68    1       12.06562613       0.50624798       2.38226778
        69    1        7.28020255       6.17249751       4.69160926
        70    1       12.40129426      10.56610235       2.60037350
        71    1        3.53621440      11.04488508       4.69707388
        72    1        3.32186514       8.60497134       8.26404392
        73    1        5.29436420       6.68885474       1.33146638
        74    1        4.85098946       7.38800019       6.98678145
        75    1        3.70235148       2.78890194       0.80941735
        76    1       12.92748428      11.71885997       8.09926407
        77    1       10.69009240       5.18062294       3.28458589
        78    1        9.89811679       9.47090160      10.50767167
        79    1        7.13660545       8.09321460       6.64002404
        80    1       12.25464684       9.17321642       5.79977831
        81    1        9.18054433       5.90443085       6.26271965
        82    1        9.70927232       7.77352645      12.17517699
        83    1       12.68557384      12.27083792       1.05868458
        84    1        2.01233124       4.13628916       1.78994141
        85    1        3.33305255       1.96361869      10.41802441
        86    1        5.57611338       5.29594420       7.91710809
        87    1       10.36543056      12.48382530       0.86400477
        88    1        7.82934956      10.71593237      10.70527974
        89    1        9.84977468       1.37768091       7.38952331
        90    1        2.38997852       1.28624815       4.72176667
        91    1       10.03333162       8.21013174       5.89224753
        92    1       10.52293131       1.69560203       5.13650659
        93    1        3.35127252       7.98692607       1.03233856
        94    1        7.58060156       3.51710054       2.24745468
        95    1        5.73522658       7.49884339       3.49345327
        96    1       11.39165931       4.05638678       1.35832570
        97    1        3.62590458       4.68081810       5.41211009
        98    1        8.70565071       3.38945920       7.67162914
        99    1        1.89067747       7.92019656       4.39357521
       100    1        4.37534959      11.24293098      10.25128669
