 # Si8
 
           8  atoms
           1  atom types
 
      0.00000000       5.07791981  xlo xhi
      0.00000000       4.44136677  ylo yhi
      0.00000000       5.18306700  zlo zhi
     -2.46161143       0.00000000       0.00000000  xy xz yz
 
Masses
 
           1   28.08500000    # Si
 
Atoms # atomic
 
         1    1        0.90100428       1.52951789       4.28053954
         2    1        1.71530410       2.91184888       0.90252746
         3    1        0.40714991       0.69116550       1.68900604
         4    1        2.20915847       3.75020127       3.49406096
         5    1        2.85914886       1.30702762       2.59153350
         6    1       -0.91061676       3.52771100       0.00000000
         7    1       -0.24284048       3.13433915       2.59153350
         8    1        3.52692514       0.91365576       0.00000000
