 # Fe12 Co6 O24
 
          42  atoms
           3  atom types
 
      0.00000000       6.03930700  xlo xhi
      0.00000000       5.23019386  ylo yhi
      0.00000000      14.72946400  zlo zhi
     -3.01965251       0.00000000       0.00000000  xy xz yz
 
Masses
 
           1   55.84500000    # Fe
           2   58.93319500    # Co
           3   15.99900000    # O 
 
Atoms # atomic
 
         1    1        2.01956304       3.47152025      12.90944724
         2    1       -1.01056262       3.49015020      14.71888824
         3    1        2.02310142       0.01323239       3.08979966
         4    1        3.52784021       0.86990153       0.01057576
         5    1        3.52203375       2.62024344       4.92040691
         6    1        5.01629704       1.74544121       7.99963082
         7    1        0.50237421       2.60995042       4.89924067
         8    1        1.99664387       3.48475264       1.82001676
         9    1        2.00909659       1.74004365       9.83022333
        10    1       -0.99655109       5.21696147       6.72983318
        11    1        0.50818134       4.36029232       9.80905709
        12    1       -1.00009079       1.75867361      11.63966434
        13    2        1.99267538       0.00000000      12.27454842
        14    2       -0.99633736       1.72570769       2.45491558
        15    2        5.03315845       0.00000000       4.90981642
        16    2        0.50307444       0.87135030       0.00000000
        17    2        2.02331647       3.50448616       7.36473200
        18    2       -2.51657840       4.35884356       9.81964758
        19    3       -2.44184197       4.35667826      13.55412642
        20    3        2.05437024       1.65824865      13.54911840
        21    3       -0.96170128       5.20289748       1.14041402
        22    3        0.43773585       4.39506788      13.58424817
        23    3        3.58737301       2.57662362       1.14521583
        24    3        3.57603692       0.95001241       3.72947083
        25    3        4.98669236       1.76859005      13.58904998
        26    3        4.99391505       0.06364100       1.17533758
        27    3       -1.00545338       3.41174960       3.76461533
        28    3       -1.00533592       1.79588643       6.05023044
        29    3        0.40890084       2.60826107       1.18034560
        30    3        0.46757842       0.93716183       3.73447884
        31    3        0.55638405       4.28018145       6.09017675
        32    3        0.56771952       2.65357023       8.67443175
        33    3        2.01419982       1.81844426       6.05503225
        34    3        2.01431789       3.43430742       3.76941713
        35    3        1.97425648       5.16655286       8.64431000
        36    3        1.96703918       3.46160380      10.96004687
        37    3        3.48723860       4.29303203       6.08515400
        38    3        3.42855434       2.62193279       8.63928725
        39    3        0.57781690       0.87351560      10.99498516
        40    3        2.05795124       0.02729638       8.67923356
        41    3       -0.96528290       3.57194520      10.99999317
        42    3        3.45738867       0.83512597      10.96484867
