 # Y2 Mn2 O6
 
          10  atoms
           3  atom types
 
      0.00000000       3.62393408  xlo xhi
      0.00000000       3.13841893  ylo yhi
      0.00000000      11.44031300  zlo zhi
