 # Cr2 Si2 Te6
 
          10  atoms
           3  atom types
 
      0.00000000       8.56467899  xlo xhi
      0.00000000       6.26951314  ylo yhi
      0.00000000       5.73171900  zlo zhi
