 # Si1
 
           1  atoms
           1  atom types
 
      0.00000000       2.73613838  xlo xhi
      0.00000000       2.36956535  ylo yhi
      0.00000000       2.23404763  zlo zhi
