 # Si2
 
           2  atoms
           1  atom types
 
      0.00000000       3.65083912  xlo xhi
      0.00000000       2.46915037  ylo yhi
      0.00000000       3.40195153  zlo zhi
