 # Si12
 
          12  atoms
           1  atom types
 
      0.00000000       5.71140266  xlo xhi
      0.00000000       3.62781479  ylo yhi
      0.00000000      12.72749600  zlo zhi
