 # Ba4 Cu8 Si8 O28
 
          48  atoms
           4  atom types
 
      0.00000000       6.94281600  xlo xhi
      0.00000000       7.05304700  ylo yhi
      0.00000000      13.19087100  zlo zhi
 
Masses
 
           1   137.32700000    # Ba
           2   63.54600000    # Cu
           3   28.08500000    # Si
           4   15.99900000    # O 
 
Atoms # atomic
 
         1    1        6.84660940       6.77080522       9.89315325
         2    1        3.37520140       3.80876528       9.89315325
         3    1        3.56761460       3.24428172       3.29771775
         4    1        0.09620660       0.28224178       3.29771775
         5    2        5.40950897       1.46828217       6.53305587
         6    2        1.93810097       2.05824133       0.06237963
         7    2        5.00471503       4.99480567       6.65781513
         8    2        1.53330703       5.58476483      13.12849137
         9    2        1.53330703       5.58476483       6.65781513
        10    2        5.00471503       4.99480567      13.12849137
        11    2        1.93810097       2.05824133       6.53305587
        12    2        5.40950897       1.46828217       0.06237963
        13    3        0.00876878       3.70196804       4.83892593
        14    3        3.48017678       6.87760246       1.75650957
        15    3        3.46263922       0.17544454       8.35194507
        16    3        6.93404722       3.35107896      11.43436143
        17    3        6.93404722       3.35107896       8.35194507
        18    3        3.46263922       0.17544454      11.43436143
        19    3        3.48017678       6.87760246       4.83892593
        20    3        0.00876878       3.70196804       1.75650957
        21    4        5.68202144       3.30740649       5.84598297
        22    4        2.21061344       0.21911701       0.74945253
        23    4        4.73220256       6.83392999       7.34488803
        24    4        1.26079456       3.74564051      12.44141847
        25    4        1.26079456       3.74564051       7.34488803
        26    4        4.73220256       6.83392999      12.44141847
        27    4        2.21061344       0.21911701       5.84598297
        28    4        5.68202144       3.30740649       0.74945253
        29    4        0.48706631       5.24339031       5.07812918
        30    4        3.95847431       5.33618019       1.51730632
        31    4        2.98434169       1.71686681       8.11274182
        32    4        6.45574969       1.80965669      11.67356468
        33    4        6.45574969       1.80965669       8.11274182
        34    4        2.98434169       1.71686681      11.67356468
        35    4        3.95847431       5.33618019       5.07812918
        36    4        0.48706631       5.24339031       1.51730632
        37    4        1.19044995       2.56415640       4.82379600
        38    4        4.66185795       0.96236710       1.77163950
        39    4        2.28095805       6.09067990       8.36707500
        40    4        5.75236605       4.48889060      11.41923150
        41    4        6.28690734       3.63061237       3.29771775
        42    4        2.81549934       6.94895813       3.29771775
        43    4        4.12731666       0.10408887       9.89315325
        44    4        0.65590866       3.42243463       9.89315325
        45    4        1.19044995       2.56415640       1.77163950
        46    4        4.66185795       0.96236710       4.82379600
        47    4        2.28095805       6.09067990      11.41923150
        48    4        5.75236605       4.48889060       8.36707500
