 # Tb8 Ti8 O28
 
          44  atoms
           3  atom types
 
      0.00000000       7.01342000  xlo xhi
      0.00000000       7.01342000  ylo yhi
      0.00000000      12.73197400  zlo zhi
 
Masses
 
           1   158.92535000    # Tb
           2   47.86700000    # Ti
           3   15.99900000    # O 
 
Atoms # atomic
 
         1    1        4.41966091       0.98189283       1.72741057
         2    1        4.48860283       6.10046909      11.27639107
         3    1        6.03152717       2.59375909       4.63857643
         4    1        6.10046909       4.48860283       1.45558293
         5    1        0.91295091       2.52481717       7.82156993
         6    1        0.98189283       4.41966091      11.00456343
         7    1        2.52481717       0.91295091       4.91040407
         8    1        2.59375909       6.03152717       8.09339757
         9    2        4.20986146       2.46758767       7.80399980
        10    2        4.54583233       2.80355854      11.29396120
        11    2        5.97429767       6.31026854       4.62100630
        12    2        6.31026854       5.97429767       8.11096770
        13    2        0.70315146       1.03912233       1.74498070
        14    2        1.03912233       0.70315146      10.98699330
        15    2        2.46758767       4.20986146       4.92797420
        16    2        2.80355854       4.54583233       1.43801280
        17    3        3.80465411       2.98249192       4.93108080
        18    3        4.02303798       5.84882758       0.90589268
        19    3        4.03092808       3.20876589       1.43490620
        20    3        4.46854445       1.19197982      12.18376066
        21    3        4.67130242       0.51632798       4.08888618
        22    3        4.69868982       6.05158555       9.00076716
        23    3        4.75641728       2.25700272       9.54898050
        24    3        5.76371272       5.76371272       6.36598700
        25    3        5.82144018       2.54487555       6.91420034
        26    3        5.84882758       4.02303798      11.82608132
        27    3        6.05158555       4.69868982       3.73120684
        28    3        6.48920192       6.71547589       1.74808730
        29    3        6.49709202       2.34211758       2.27710082
        30    3        6.71547589       6.48920192      10.98388670
        31    3        0.29794411       0.52421808       4.61789970
        32    3        0.51632798       4.67130242       8.64308782
        33    3        0.52421808       0.29794411       8.11407430
        34    3        0.96183445       2.31473018      10.09719384
        35    3        1.16459242       2.99038202       5.46009432
        36    3        1.19197982       4.46854445       0.54821334
        37    3        1.24970728       1.24970728       0.00000000
        38    3        2.25700272       4.75641728       3.18299350
        39    3        2.31473018       0.96183445       2.63478016
        40    3        2.34211758       6.49709202      10.45487318
        41    3        2.54487555       5.82144018       5.81777366
        42    3        2.98249192       3.80465411       7.80089320
        43    3        2.99038202       1.16459242       7.27187968
        44    3        3.20876589       4.03092808      11.29706780
