 # Rb1 Mn1 F3
 
           5  atoms
           3  atom types
 
      0.00000000       4.31233400  xlo xhi
      0.00000000       4.31233400  ylo yhi
      0.00000000       4.31233400  zlo zhi
 
Masses
 
           1   85.46780000    # Rb
           2   54.93804500    # Mn
           3   18.99840320    # F 
 
Atoms # atomic
 
         1    1        0.00000000       0.00000000       0.00000000
         2    2        2.15616700       2.15616700       2.15616700
         3    3        2.15616700       0.00000000       2.15616700
         4    3        2.15616700       2.15616700       0.00000000
         5    3        0.00000000       2.15616700       2.15616700
