 # Pr4 Cu2 O8
 
          14  atoms
           3  atom types
 
      0.00000000       6.99267570  xlo xhi
      0.00000000       4.88994851  ylo yhi
      0.00000000       5.58346500  zlo zhi
