 # Ta4 Ni2 O12
 
          18  atoms
           3  atom types
 
      0.00000000       4.77740200  xlo xhi
      0.00000000       4.77740200  ylo yhi
      0.00000000       9.17788800  zlo zhi
 
Masses
 
           1   180.94788000    # Ta
           2   58.69340000    # Ni
           3   15.99900000    # O 
 
Atoms # atomic
 
         1    1        2.38870100       2.38870100       1.54785081
         2    1        0.00000000       0.00000000       6.13679481
         3    1        2.38870100       2.38870100       7.63003719
         4    1        0.00000000       0.00000000       3.04109319
         5    2        2.38870100       2.38870100       4.58894400
         6    2        0.00000000       0.00000000       0.00000000
         7    3        0.90460107       3.87280093       4.58894400
         8    3        3.87280093       0.90460107       4.58894400
         9    3        1.48409993       1.48409993       0.00000000
        10    3        3.29330207       3.29330207       0.00000000
        11    3        0.96964540       3.80775660       1.60289978
        12    3        3.80775660       0.96964540       1.60289978
        13    3        1.41905560       1.41905560       6.19184378
        14    3        3.35834640       3.35834640       6.19184378
        15    3        3.80775660       0.96964540       7.57498822
        16    3        0.96964540       3.80775660       7.57498822
        17    3        3.35834640       3.35834640       2.98604422
        18    3        1.41905560       1.41905560       2.98604422
