 # Mn4 Fe2 O8
 
          14  atoms
           3  atom types
 
      0.00000000       5.97984459  xlo xhi
      0.00000000       5.89020500  ylo yhi
      0.00000000       4.59698869  zlo zhi
      0.00004058       2.92277558       2.94505786  xy xz yz
 
Masses
 
           1   54.93804500    # Mn
           2   55.84500000    # Fe
           3   15.99900000    # O 
 
Atoms # atomic
 
         1    1        7.42135283       5.89015956       3.46675466
         2    1        4.42197028       5.89010107       3.42379121
         3    1        2.96915432       4.40304417       1.10239007
         4    1        2.96925188       1.48719243       1.10211425
         5    2        8.82756136       2.94509335       4.58224155
         6    2        6.01950178       2.94514177       2.32549246
         7    3        6.03606364       7.23550567       3.49429063
         8    3        4.28690708       2.94487015       1.18080550
         9    3        1.61856668       5.89012080       1.08903122
        10    3        1.66181506       2.94518926       1.07398987
        11    3        2.84572300       7.28172036       3.47943316
        12    3        6.03607806       4.54489242       3.49428603
        13    3        2.84601744       4.49871336       3.47945614
        14    3        4.32509872       5.89016995       1.18332925
