 # Mn2 C2 O6
 
          10  atoms
           3  atom types
 
      0.00000000       4.83657753  xlo xhi
      0.00000000       4.18800219  ylo yhi
      0.00000000       5.29511081  zlo zhi
