 # Mn4 C4 O12
 
          20  atoms
           3  atom types
 
      0.00000000       5.33517700  xlo xhi
      0.00000000       5.97078200  ylo yhi
      0.00000000       6.91401000  zlo zhi
      0.00000000       0.00000000       0.59364200  xy xz yz
 
Masses
 
           1   54.93804500    # Mn
           2   12.01100000    # C 
           3   15.99900000    # O 
 
Atoms # atomic
 
         1    1        1.21115454       2.99065082       6.25890064
         2    1        3.87874304       3.87059418       4.11211436
         3    1        4.12402246       3.57377318       0.65510936
         4    1        1.45643396       2.69382982       2.80189564
         5    2        2.12684697       6.13527640       6.58128709
         6    2        4.79443547       0.72596860       3.78972790
         7    2        3.20833003       0.42914760       0.33272290
         8    2        0.54074153       5.83845540       3.12428210
         9    3        2.36742611       4.86969111       6.61939020
        10    3        5.03501461       1.99155389       3.75162479
        11    3        2.96775089       1.69473289       0.29461979
        12    3        0.30016239       4.57287011       3.16238520
        13    3        1.13460542       0.72138336       6.07531293
        14    3        3.80219392       6.13986164       4.29570207
        15    3        4.20057158       5.84304064       0.83869707
        16    3        1.53298308       0.42456236       2.61830793
        17    3        4.86584148       3.92026697       5.80113095
        18    3        2.19825298       2.94097803       4.56988405
        19    3        0.46933552       2.64415703       1.11287905
        20    3        3.13692402       3.62344597       2.34412595
