 # Mn4 C4 O12
 
          20  atoms
           3  atom types
 
      0.00000000       4.86317207  xlo xhi
      0.00000000       6.19718639  ylo yhi
      0.00000000       7.39780991  zlo zhi
      0.03454176       0.03325130       2.15988696  xy xz yz
 
Masses
 
           1   54.93804500    # Mn
           2   12.01100000    # C 
           3   15.99900000    # O 
 
Atoms # atomic
 
         1    1        1.55840868       2.63554634       3.72175679
         2    1        3.37259020       5.72183216       3.67535772
         3    1        1.54141964       1.55436312       0.02234139
         4    1        3.38972721       6.80279053       7.37593458
         5    2        3.97191308       2.08842107       1.85105040
         6    2        3.98868389       3.16830089       5.54982220
         7    2        0.94224161       5.18864636       1.84798031
         8    2        0.95903765       6.26865313       5.54682608
         9    3        0.40845104       2.09032968       1.86873117
        10    3        0.42518386       3.17031626       5.56761393
        11    3        4.50572946       5.18695391       1.83040312
        12    3        4.52248111       6.26673824       5.52946342
        13    3        3.30085053       1.54267271       2.81581359
        14    3        3.31771529       2.62274474       6.51475553
        15    3        1.61313270       5.73424617       0.88306917
        16    3        1.62984708       6.81444881       4.58188535
        17    3        1.58736361       4.64676547       2.83273978
        18    3        1.60416397       5.72660257       6.53172611
        19    3        3.32704309       2.63030824       0.86597283
        20    3        3.34367716       3.71003642       4.56484080
