 # K8 Cu4 F16
 
          28  atoms
           3  atom types
 
      0.00000000      13.59507752  xlo xhi
      0.00000000       7.94191829  ylo yhi
      0.00000000       4.17230478  zlo zhi
