 # K2 Cu1 F4
 
           7  atoms
           3  atom types
 
      0.00000000       7.13474866  xlo xhi
      0.00000000       5.33582357  ylo yhi
      0.00000000       2.92502215  zlo zhi
