 # La2 Cu1 O4
 
           7  atoms
           3  atom types
 
      0.00000000       6.92423226  xlo xhi
      0.00000000       5.17228858  ylo yhi
      0.00000000       2.83453087  zlo zhi
