 # La4 Cu2 O8
 
          14  atoms
           3  atom types
 
      0.00000000       7.07819620  xlo xhi
      0.00000000       4.95809434  ylo yhi
      0.00000000       5.54339200  zlo zhi
