 # Sm2 Cu1 O4
 
           7  atoms
           3  atom types
 
      0.00000000       6.66682973  xlo xhi
      0.00000000       5.05858541  ylo yhi
      0.00000000       2.78351312  zlo zhi
