 # Y4 Mn4 O12
 
          20  atoms
           3  atom types
 
      0.00000000       5.33623100  xlo xhi
      0.00000000       5.88945500  ylo yhi
      0.00000000       7.49551000  zlo zhi
 
Masses
 
           1   88.90585000    # Y 
           2   54.93804500    # Mn
           3   15.99900000    # O 
 
Atoms # atomic
 
         1    1        2.76500011       3.43314589       1.87387750
         2    1        5.23934639       0.48841839       1.87387750
         3    1        2.57123089       2.45630911       5.62163250
         4    1        0.09688461       5.40103661       5.62163250
         5    2        0.00000000       2.94472750       0.00000000
         6    2        2.66811550       0.00000000       3.74775500
         7    2        0.00000000       2.94472750       3.74775500
         8    2        2.66811550       0.00000000       0.00000000
         9    3        2.04449686       5.64427699       1.87387750
        10    3        0.62361864       2.69954949       1.87387750
        11    3        3.29173414       0.24517801       5.62163250
        12    3        4.71261236       3.18990551       5.62163250
        13    3        4.26942237       4.87156282       0.41724506
        14    3        3.73492413       1.92683532       3.33050994
        15    3        1.06680863       1.01789218       4.16500006
        16    3        1.60130687       3.96261968       7.07826494
        17    3        1.06680863       1.01789218       7.07826494
        18    3        1.60130687       3.96261968       4.16500006
        19    3        4.26942237       4.87156282       3.33050994
        20    3        3.73492413       1.92683532       0.41724506
