 # Y1 Mn1 O3
 
           5  atoms
           3  atom types
 
      0.00000000       3.87225500  xlo xhi
      0.00000000       3.87225500  ylo yhi
      0.00000000       3.87225500  zlo zhi
 
Masses
 
           1   88.90585000    # Y 
           2   54.93804500    # Mn
           3   15.99900000    # O 
 
Atoms # atomic
 
         1    1        0.00000000       0.00000000       0.00000000
         2    2        1.93612750       1.93612750       1.93612750
         3    3        1.93612750       1.93612750       0.00000000
         4    3        1.93612750       0.00000000       1.93612750
         5    3        0.00000000       1.93612750       1.93612750
