 # La16 Cu14 O38
 
          68  atoms
           3  atom types
 
      0.00000000       3.77502513  xlo xhi
      0.00000000       6.90758276  ylo yhi
      0.00000000      34.17257571  zlo zhi
      1.87188897       1.85856511       1.27931169  xy xz yz
 
Masses
 
           1   138.90547000    # La
           2   63.54600000    # Cu
           3   15.99900000    # O 
 
Atoms # atomic
 
         1    1        3.85132327       6.75913633       6.22374870
         2    1        1.97393175       0.89728621       9.88561357
         3    1        3.62553114       1.41214476      27.97127840
         4    1        5.54462787       7.27519323      24.31245489
         5    1        3.63239746       3.93534961      23.30631174
         6    1        3.84300506       3.18102549       7.20562932
         7    1        5.45745558       6.23800697      20.69436509
         8    1        3.84744609       4.24040270      10.87880531
         9    1        3.91344721       2.16650773       3.61737217
        10    1        3.78880437       2.95437850      19.67810686
        11    1        3.79160616       2.42806921      31.58437900
        12    1        2.02795713       1.94743049      13.47803976
        13    1        3.66572658       4.98611280      26.97818918
        14    1        3.71007530       5.75628402       2.58840175
        15    1        3.69761862       5.25275897      14.48626743
        16    1        3.57816306       6.02227353      30.56132043
        17    2        5.61678697       7.44486646      16.01384991
        18    2        1.96910558       5.49658736       8.53528424
        19    2        5.65143072       4.68783876      33.10980861
        20    2        1.86255371       3.50719460       1.06078510
        21    2        1.95143558       4.46253844       4.85301834
        22    2        1.88436390       0.73058747      18.15093445
        23    2        3.25809516       1.08055615       0.78610593
        24    2        5.54077245       3.71707238      29.32888649
        25    2        5.53754145       2.66662351      25.62905589
        26    2        5.13150059       3.01551315      16.30435098
        27    2        2.35628050       5.18316514      17.87393156
        28    2        5.73048103       6.56167752      12.24205187
        29    2        1.76906383       1.64017160      21.93568390
        30    2        4.23076685       7.08476925      33.39043380
        31    3        5.44210740       6.04633980      28.53758632
        32    3        3.84761126       4.44776932       4.87034384
        33    3        1.94504158       4.93134525       6.71908018
        34    3        3.98204258       2.95351586      14.70162301
        35    3        3.84902905       6.57520813      12.22448717
        36    3        5.45001167       5.03315135      24.94645869
        37    3        5.61743706       4.22167665      31.20940333
        38    3        2.09562842       1.15468460       2.36433217
        39    3        3.75611528       3.11304014       0.96315405
        40    3        1.84708240       1.04227239      16.11633347
        41    3        2.07788607       3.14534272       9.23052529
        42    3        3.90562054       1.95072817      11.44330208
        43    3        3.75420245       5.07937526      33.20928498
        44    3        1.87999681       3.95282458       2.96628209
        45    3        5.64301864       7.14473007      18.06909114
        46    3        3.85134104       5.49823244       8.54970506
        47    3        3.51198631       5.25021850      19.46890235
        48    3        1.96584256       3.21468503      18.10165760
        49    3        3.65652057       1.62776106      21.95659752
        50    3        5.73035999       2.12287913      33.12969705
        51    3        1.84376940       1.13636939      20.05629476
        52    3        5.52594247       4.97953749      16.04211063
        53    3        5.65052530       7.04536355      14.11310291
        54    3        3.64595749       2.66691676      25.64556124
        55    3        1.77260397       6.02964648       1.03484811
        56    3        5.40035144       4.01555633      21.47619945
        57    3        2.04465085       2.14391586       5.64561706
        58    3        2.06869800       4.16876851      12.70006690
        59    3        5.39083666       7.01013727      31.79857271
        60    3        5.55078822       3.23049307      27.44918979
        61    3        3.64968330       3.72872513      29.30636676
        62    3        3.55651167       6.20889923      22.72882939
        63    3        3.56109624       7.21567916      26.30044448
        64    3        5.42944158       1.35152575      29.76332244
        65    3        3.94488950       0.95057714       7.85077337
        66    3        2.06608323       6.82322949       4.40272631
        67    3        1.77726760       2.12415285      23.80410365
        68    3        5.72775027       6.06670016      10.37014652
