 # Mn4 Fe2 O8
 
          14  atoms
           3  atom types
 
      0.00000000       6.08749336  xlo xhi
      0.00000000       5.36509558  ylo yhi
      0.00000000       4.97771667  zlo zhi
