 # Mn4 Fe2 O8
 
          14  atoms
           3  atom types
 
      0.00000000       5.99335377  xlo xhi
      0.00000000       5.99613648  ylo yhi
      0.00000000       4.52494521  zlo zhi
