 # Mn4 Fe2 O8
 
          14  atoms
           3  atom types
 
      0.00000000       5.81652479  xlo xhi
      0.00000000       5.81635684  ylo yhi
      0.00000000       4.79268100  zlo zhi
