 # Si4
 
           4  atoms
           1  atom types
 
      0.00000000       5.10955969  xlo xhi
      0.00000000       3.57565826  ylo yhi
      0.00000000       4.73060942  zlo zhi
