 # Si8
 
           8  atoms
           1  atom types
 
      0.00000000       5.45513673  xlo xhi
      0.00000000       3.70464398  ylo yhi
      0.00000000       8.61520899  zlo zhi
