 # Si4
 
           4  atoms
           1  atom types
 
      0.00000000       4.99073639  xlo xhi
      0.00000000       3.08322170  ylo yhi
      0.00000000       3.99175300  zlo zhi
