 # Si6
 
           6  atoms
           1  atom types
 
      0.00000000       5.09237465  xlo xhi
      0.00000000       4.41012544  ylo yhi
      0.00000000       4.41909200  zlo zhi
