 # K2 Cu2 F6
 
          10  atoms
           3  atom types
 
      0.00000000       5.83294200  xlo xhi
      0.00000000       5.83294200  ylo yhi
      0.00000000       4.00824000  zlo zhi
 
Masses
 
           1   39.09830000    # K 
           2   63.54600000    # Cu
           3   18.99840320    # F 
 
Atoms # atomic
 
         1    1        2.91647100       2.91647100       2.00412000
         2    1        0.00000000       0.00000000       2.00412000
         3    2        2.91647100       0.00000000       0.00000000
         4    2        0.00000000       2.91647100       0.00000000
         5    3        2.91647100       0.00000000       2.00412000
         6    3        0.00000000       2.91647100       2.00412000
         7    3        4.27946039       1.36298939       0.00000000
         8    3        1.55348161       4.46995261       0.00000000
         9    3        1.36298939       1.55348161       0.00000000
        10    3        4.46995261       4.27946039       0.00000000
