 # K2 Cu2 F6
 
          10  atoms
           3  atom types
 
      0.00000000       5.75495727  xlo xhi
      0.00000000       5.75488828  ylo yhi
      0.00000000       4.07932023  zlo zhi
     -0.02817987      -2.86338870      -2.87744414  xy xz yz
 
Masses
 
           1   39.09830000    # K 
           2   63.54600000    # Cu
           3   18.99840320    # F 
 
Atoms # atomic
 
         1    1        1.43169435       1.43872207       0.00000000
         2    1        4.29508305       4.31616621       0.00000000
         3    2        1.44578428      -1.43872207       2.03966012
         4    2       -1.44578428       1.43872207       2.03966012
         5    3        4.30917299       1.43872207       0.05559298
         6    3        0.03940630      -0.03921381       2.03966012
         7    3        2.82398241       2.91665795       2.03966012
         8    3       -1.44578428       1.43872207       4.02372726
         9    3       -0.01408993       2.87744414       2.03966012
        10    3        2.87747864       0.00000000       2.03966012
