 # Sr2 Cu4 B4 O12
 
          22  atoms
           4  atom types
 
      0.00000000       7.27998548  xlo xhi
      0.00000000       6.03872104  ylo yhi
      0.00000000       6.42644240  zlo zhi
