 # Sr2 Cu4 B4 O12
 
          22  atoms
           4  atom types
 
      0.00000000       7.28681241  xlo xhi
      0.00000000       6.03861576  ylo yhi
      0.00000000       6.43489162  zlo zhi
