 # Dy4 Fe4 O12
 
          20  atoms
           3  atom types
 
      0.00000000       5.33306400  xlo xhi
      0.00000000       5.65585500  ylo yhi
      0.00000000       7.71307200  zlo zhi
 
Masses
 
           1   162.50000000    # Dy
           2   55.84500000    # Fe
           3   15.99900000    # O 
 
Atoms # atomic
 
         1    1        0.10122689       5.26415876       5.78480400
         2    1        2.76775889       3.21962374       1.92826800
         3    1        2.56530511       2.43623126       5.78480400
         4    1        5.23183711       0.39169624       1.92826800
         5    2        2.66653200       0.00000000       3.85653600
         6    2        0.00000000       2.82792750       3.85653600
         7    2        0.00000000       2.82792750       0.00000000
         8    2        2.66653200       0.00000000       0.00000000
         9    3        1.64814610       3.92294627       4.31571832
        10    3        4.31467810       4.56083623       3.39735368
        11    3        1.01838590       1.09501877       7.25388968
        12    3        3.68491790       1.73290873       0.45918232
        13    3        3.68491790       1.73290873       3.39735368
        14    3        1.01838590       1.09501877       4.31571832
        15    3        4.31467810       4.56083623       0.45918232
        16    3        1.64814610       3.92294627       7.25388968
        17    3        0.62109930       2.58381514       1.92826800
        18    3        3.28763130       0.24411236       5.78480400
        19    3        2.04543270       5.41174264       1.92826800
        20    3        4.71196470       3.07203986       5.78480400
