 # Cr4 Cu2 O8
 
          14  atoms
           3  atom types
 
      0.00000000       5.97285325  xlo xhi
      0.00000000       5.17789866  ylo yhi
      0.00000000       4.87927705  zlo zhi
     -2.97730367       2.97730229       1.73300427  xy xz yz
 
Masses
 
           1   51.99610000    # Cr
           2   63.54600000    # Cu
           3   15.99900000    # O 
 
Atoms # atomic
 
         1    1       -0.00000069       3.45545146       2.43963852
         2    1        2.98642893       3.45544973       2.43963364
         3    1        1.48864817       0.86650040       2.43963364
         4    1        1.49777479       2.58894933       0.00000000
         5    2        4.47963677       0.86386460       0.60991451
         6    2        1.49321211       6.04704006       4.26936742
         7    3        5.83056884       5.09594667       3.60308750
         8    3        4.47977071       2.76106130       3.60308750
         9    3        4.47951075       4.31939199       1.39589285
        10    3        2.84414287       1.81004039       1.28315228
        11    3        1.49334114       2.59151438       3.48337932
        12    3        1.49308117       4.14984854       1.27619443
        13    3        3.12870901       5.10086254       3.59612477
        14    3        0.14228302       1.81495281       1.27619443
