 # Cr4 Cu2 O8
 
          14  atoms
           3  atom types
 
      0.00000000       5.92625371  xlo xhi
      0.00000000       5.21243450  ylo yhi
      0.00000000       4.87255612  zlo zhi
     -2.81983066      -2.81983064      -1.85138369  xy xz yz
 
Masses
 
           1   51.99610000    # Cr
           2   63.54600000    # Cu
           3   15.99900000    # O 
 
Atoms # atomic
 
         1    1       -2.74814446       3.40378507       3.04532321
         2    1        1.62485481       0.79750863       3.04532809
         3    1        3.03474279       1.72326268       0.60906464
         4    1       -1.33827142       0.79755417       3.04538656
         5    2        0.14329620       3.44646583       1.21814878
         6    2       -2.81982753      -1.85137141       4.87255125
         7    3       -1.45886187       2.41917967       1.84925686
         8    3        3.10433632       0.13202259       1.84925199
         9    3        0.14538248       1.46319404       4.24149676
        10    3       -1.21778741      -0.82413504       4.24149189
        11    3        1.74545428       2.49163048       1.95428968
        12    3       -2.81773797       1.67926889       4.09231371
        13    3        0.14121276      -0.08417812       1.99824501
        14    3        1.50437984      -0.89660265       4.13643471
