 # Al40 O60
 
         100  atoms
           2  atom types
 
      0.00000000      10.17151985  xlo xhi
      0.00000000      10.34353721  ylo yhi
      0.00000000      10.49837445  zlo zhi
     -0.42732950      -0.87482842      -0.55000517  xy xz yz
 
Masses
 
           1   26.98153860    # Al
           2   15.99900000    # O 
 
Atoms # atomic
 
         1    1        3.49701685       5.54965013       3.72925987
         2    1        3.48829044      -0.11941787       5.85898089
         3    1        7.48303923       7.60667992       6.33345262
         4    1       -0.88557531       6.25089395       9.51661802
         5    1        4.26533836       7.00908749       9.63563473
         6    1        8.43518983       1.57755406       7.49370126
         7    1        2.91262320       2.98391251       5.79254645
         8    1       -0.29238673       9.10487759      10.31774981
         9    1        2.56883851       7.94617919       0.18956516
        10    1        8.96580560       4.78689776       7.01483617
        11    1        8.39508837       6.99715130       3.23846023
        12    1        6.75809903       2.57446570       1.18172327
        13    1        7.34682993       9.77996220       1.83867837
        14    1        4.16780284       7.59781765       6.31453507
        15    1        1.17013087       8.28069171       7.49733044
        16    1        9.69955469       1.75771018       0.08337872
        17    1        7.07350275       3.54484819       9.31329673
        18    1        8.88901114       1.80355662       3.14555067
        19    1        4.67506426       9.85206261       3.81831947
        20    1        3.75529792       2.80411967       0.20510590
        21    1        4.08835392       2.49150906       3.25389400
        22    1        7.20538798       9.12846366       9.17511366
        23    1        5.64928497       7.23481061       2.33604558
        24    1        1.31737809       9.22333491       3.09976684
        25    1        1.66021333       5.73949573       5.72457640
        26    1        0.69745701       1.40377838       5.41942078
        27    1        6.13190956      -0.19204219       7.06361865
        28    1        4.32772345       5.35313680       0.80781632
        29    1        7.05835711       4.49715888       3.82593268
        30    1        7.54979560       6.70555459       0.12788752
        31    1        1.06785413       4.76939144       0.56706749
        32    1        6.02428032       6.20081212       7.87692678
        33    1        1.80296919       5.16963141       8.28151817
        34    1        1.51695594       2.55123786       2.41361124
        35    1        0.74566758       1.84075652       8.83313489
        36    1        0.08771064       4.50686722       3.89031427
        37    1        4.18516098       1.95864649       8.20462745
        38    1       -0.60439857       8.91981817       4.84419721
        39    1        4.72379638      -0.41399184      10.19426006
        40    1        6.22431452       2.85374286       6.53955125
        41    2        5.63701277       8.95712359       2.64690024
        42    2        3.81439616       1.00553882       9.79468584
        43    2        7.16100826       9.02969394       7.28362238
        44    2        4.23123509       6.73023057       7.91626356
        45    2       -0.26300402       2.77621192      10.01932764
        46    2        0.00758037       1.63952469       7.11549627
        47    2        2.33210506       1.29087552       6.10785609
        48    2        5.86970812       2.53546700       8.38934918
        49    2        8.56973548      10.22666272       0.48031354
        50    2        3.93359171       6.48842823       2.25375617
        51    2        4.53078532       0.62901138       7.09523734
        52    2        0.72963088       0.02244342       4.27729895
        53    2        7.10867616       1.24132829       6.38556308
        54    2        7.09716851       4.03422361       5.52743467
        55    2        4.88012635       9.24204850       5.54734893
        56    2        5.77609071       6.53043873       0.64917307
        57    2        7.77150049       7.79873069       1.69853463
        58    2        8.18119302       2.94712119       0.19272191
        59    2        6.00521156       4.96468110       9.12510613
        60    2        3.13926899       2.04348291       1.74172032
        61    2        8.12824577       5.13576862      10.37187061
        62    2        1.02548398       8.28772911       9.27248976
        63    2        1.24208850       6.60616904       0.35687649
        64    2        5.31247226       3.68329804       0.81346780
        65    2        2.69773200       8.77287215       6.77653483
        66    2        1.51201696       6.60033317       7.24683723
        67    2        5.88790716       6.86449025       6.20958230
        68    2        0.66832449       4.10120444       2.16238021
        69    2        2.15282194       4.27541781       6.71551261
        70    2        2.73920013       5.87101836       9.81171010
        71    2        6.53340898       0.75380665       1.11570246
        72    2        2.86000901       4.36374647       0.65836125
        73    2       -0.13427748       5.10363487       5.64736894
        74    2        8.16403153       3.35491467       7.81857692
        75    2        6.16139527       7.42494335       9.45270423
        76    2        1.75028104       5.22284300       4.02302297
        77    2        7.43852930       2.94549089       2.82262161
        78    2        3.33991358       6.53690503       5.19004159
        79    2        1.57187565       9.13460621       1.31691557
        80    2        6.53686953       6.15692116       3.36298439
        81    2        0.06686804       7.95456430       3.46794304
        82    2        0.05553970       1.66309306       1.88174827
        83    2        8.71962599       7.94825303       9.51921164
        84    2        4.47399427       3.08911244       6.48080024
        85    2       -0.22915975       2.62149029       4.38527022
        86    2        2.84896901       9.56281710       3.99352684
        87    2        8.32866467       0.16975074       3.32561753
        88    2        4.61285537       4.15110605       3.60187868
        89    2       -0.00932977       5.03751270       8.47551175
        90    2       -0.17470999       8.81496115       6.51661524
        91    2        7.95643114       6.22259167       7.46963016
        92    2        8.33408918       0.59910217       8.90826504
        93    2        8.75078206       5.27077266       3.37600878
        94    2        3.43338317       8.33475702      10.49208025
        95    2        2.38897192       2.64470668       8.83363283
        96    2        0.48550216       0.43861095       9.93592582
        97    2        8.08382022       7.94792413       4.74237347
        98    2        5.06466935       1.23752831       3.90002233
        99    2        2.42863152       2.65360619       4.04502346
       100    2        5.46520379       9.75871581       8.89553093
