 # Al40 O60
 
         100  atoms
           2  atom types
 
      0.00000000      10.00150198  xlo xhi
      0.00000000      10.59801620  ylo yhi
      0.00000000      10.60765060  zlo zhi
     -0.47008435      -0.11828854      -0.54094137  xy xz yz
 
Masses
 
           1   26.98153860    # Al
           2   15.99900000    # O 
 
Atoms # atomic
 
         1    1        5.56685652       2.81797330       6.23065784
         2    1        8.33226096       0.35609468       4.96342059
         3    1        2.96440400       2.97111988       6.18394027
         4    1        1.97107846       5.30751338       4.16033245
         5    1        8.01047089       3.36301448       2.31456316
         6    1        2.30314348       8.38388509       5.32224124
         7    1        0.73583705       8.83970581       7.31260065
         8    1        0.19212958       2.74014082       4.70761487
         9    1        5.12830292       2.43546213       1.17269190
        10    1        7.03004046       3.75601147       9.89474498
        11    1        4.77736004       5.60209765       7.50003731
        12    1       -0.31918223       6.52863637       8.92058545
        13    1        4.97795339       0.20631244       4.97054575
        14    1        8.13139848       7.73535676       5.58396953
        15    1        4.49005558      -0.23568598      10.09495145
        16    1        6.32048235       7.69853436       9.62943958
        17    1        1.99989888       2.05168936       0.42229195
        18    1        7.02521558       0.47511003       0.97482686
        19    1        2.92318669       1.68751347       3.42090696
        20    1        3.55154862       9.37471576       2.39504648
        21    1        6.56555042       0.42688298       8.45186212
        22    1        2.81040597       7.09992981       9.99369485
        23    1        8.36136261       8.34197511       0.90383346
        24    1        0.28357909       9.01197295       3.78573886
        25    1        1.13786523       9.22650335       0.47827436
        26    1        4.45698350       4.36980502       3.63065660
        27    1       -0.13061109       3.44695161      10.30786768
        28    1        4.77690293       5.03162574      10.39631639
        29    1       -0.16556944       0.34372373       9.74255119
        30    1        8.24920032       9.45153879       7.75888043
        31    1        9.05315319       6.22245280       2.90757008
        32    1        6.77526507       5.42478550       4.63039107
        33    1        5.11697232       7.66725347       4.74281254
        34    1        1.69367874       4.78516900       8.26224835
        35    1        4.10174959       8.69995193       7.78724274
        36    1        5.99317224       7.12902874       2.16814799
        37    1        2.02827400       5.35190827       1.40072987
        38    1        8.42858948       2.23582697       7.52341753
        39    1       -0.06427238       0.93551976       2.28453120
        40    1       -0.00971897       5.90500301       5.79820260
        41    2       -0.15560754       8.94636615       1.66772114
        42    2        1.67698198       1.35907349       2.17202445
        43    2        6.16425651       0.79513389      10.14589702
        44    2        1.82387484       2.04710149       4.80578974
        45    2        5.63326237       4.03257080       0.38429397
        46    2        9.05067584       1.88703344       5.85140888
        47    2        3.70235057       8.62429911       9.56967279
        48    2        0.74106722       9.31099092       5.59140836
        49    2        5.93349093       4.90493720       8.98429564
        50    2       -0.12914498       9.91927197       8.34918483
        51    2        1.76618738       3.28494086       7.41205459
        52    2        0.43823987       4.49126559       4.79501608
        53    2        9.31774533       2.40905519       3.13426183
        54    2        5.13317901      -0.03160668       1.24937577
        55    2        5.63869102       7.10543134       0.37091698
        56    2        6.77918872       9.23132872       8.68309299
        57    2        2.05801927       8.75859897       3.54723909
        58    2        8.41440081       4.05998632       0.66260350
        59    2        7.80843888       7.08155072       1.96670244
        60    2        2.42797780       8.42213663       7.20116654
        61    2        3.93107879       0.22301094       3.55554870
        62    2        8.44656673       3.46092804       8.79542175
        63    2        3.22565670       6.01988322       0.24455631
        64    2        8.43680954       0.70438980       8.45114525
        65    2        9.14467832       7.81361430       7.32141360
        66    2        3.74554932       1.85126494       0.04299504
        67    2        1.00640969       7.59175433       9.62315582
        68    2        0.54010506       5.01103162       9.76384774
        69    2        5.07340751       6.19390843       5.74634667
        70    2        0.39253569       5.71425832       7.47957802
        71    2        4.78497385       8.19703784       3.01694588
        72    2        3.18100252       4.19890438       4.90095999
        73    2        6.81740414       7.52989745       4.43312112
        74    2        1.50153370       3.75602835       0.90349699
        75    2        9.54993508      -0.15940860       3.67908254
        76    2        8.96230870       0.81725309       0.76501718
        77    2        0.55460489       1.91643862       9.72727585
        78    2        6.00315757       3.78020171       4.81020072
        79    2        3.08722436       5.35161460       2.80751065
        80    2        9.40088609       7.46013165       4.25500042
        81    2        6.78774340       2.08032565       1.94557359
        82    2        6.64570201       0.51944084       4.67920196
        83    2        0.65467030       5.95119033       2.34096963
        84    2        8.14381466       5.88663459       5.84024613
        85    2        4.44597134       3.83444919       7.12986595
        86    2        4.26943134       1.65171661       5.77600789
        87    2        6.66185312       1.95241456       7.32751841
        88    2        6.92549458       9.31524049       0.66628022
        89    2        5.64129647       5.63202149       3.09628644
        90    2        7.88987402       9.51895860       6.02537286
        91    2        5.30597965       7.31075649       8.09775424
        92    2        8.20276356       7.07424851       9.83582373
        93    2        1.69791044       6.65671001       5.27780166
        94    2        3.14456484       5.87135431       8.44318867
        95    2        4.14163757       2.83114359       2.66401566
        96    2        8.07568168       4.80862474       3.36747654
        97    2        4.90751974      -0.15450256       8.13220937
        98    2        1.38017547      -0.26311358      10.56948692
        99    2        2.64441601       8.58414979       1.04565510
       100    2        4.20535274       9.00619629       5.58316441
