 # Al16 O24
 
          40  atoms
           2  atom types
 
      0.00000000       7.77391168  xlo xhi
      0.00000000       7.32931422  ylo yhi
      0.00000000       6.34737231  zlo zhi
     -2.59130389      -2.59130389      -3.66465711  xy xz yz
 
Masses
 
           1   26.98153860    # Al
           2   15.99900000    # O 
 
Atoms # atomic
 
         1    1        3.88695584       0.00000000       0.00000000
         2    1        6.28257483       1.05453440       1.34717899
         3    1        4.08264075      -2.47175259       4.76052923
         4    1        3.69127094       2.47175259       1.58684308
         5    1        3.69127094       5.63535579       0.23966408
         6    1        3.69127094       0.13837012       3.41335024
         7    1        1.09996704      -0.77779415       4.52086515
         8    1       -1.29565195       3.66465711       0.00000000
         9    1        1.29565195       1.83232856       3.17368615
        10    1       -1.29565195      -1.83232855       3.17368615
        11    1        1.49133685       4.44245127       1.82650716
        12    1       -1.09996704       3.52628699       2.93402207
        13    1       -1.09996704      -1.97069868       6.10770822
        14    1       -1.09996704       1.19290452       4.76052923
        15    1       -1.49133685       6.13640970       1.58684308
        16    1       -3.69127093       2.61012271       5.00019331
        17    2        4.58435346      -1.48554938       3.15741149
        18    2        4.36807287       0.65221368       1.74658105
        19    2        1.99304956      -0.15929532       0.30845690
        20    2        5.52001110       2.84375193       1.45439881
        21    2        1.77676898      -0.00636184       2.86522925
        22    2        3.43241522       4.31990513       1.71928735
        23    2       -0.33740331       1.99465821       0.01627466
        24    2        1.75019256       2.50333460       1.42710511
        25    2        2.92870721      -0.84909372       4.90924816
        26    2        3.18955822       2.01981241       3.46586840
        27    2       -0.81453492      -0.64585184       1.73556201
        28    2        1.75019256       5.48122764       0.29218224
        29    2        3.40583881       4.31050895       4.61181030
        30    2       -0.59825433       1.64484470       2.88150391
        31    2       -0.33740331       4.51375083       1.43812414
        32    2        0.84111133      -1.81657053       6.05519007
        33    2        0.84111133       1.16132251       4.92026720
        34    2        2.92870721       1.66999891       6.33109765
        35    2        0.81453492       3.67101896       3.48214306
        36    2       -0.84111133      -0.65524802       4.62808496
        37    2       -2.92870721       0.82090518       4.89297350
        38    2        0.59825433       3.82395243       6.03891540
        39    2       -1.99304956       5.15020649       3.18996082
        40    2       -1.77676897       3.01244343       4.60079126
