 # Al40 O60
 
         100  atoms
           2  atom types
 
      0.00000000      10.63080810  xlo xhi
      0.00000000      10.53065018  ylo yhi
      0.00000000      10.15345419  zlo zhi
      0.58778564       0.28126358      -0.55882087  xy xz yz
 
Masses
 
           1   26.98153860    # Al
           2   15.99900000    # O 
 
Atoms # atomic
 
         1    1        9.24250843       5.33109090       6.53146020
         2    1        7.87105235       8.61531992       3.07137918
         3    1        5.24370922       7.11307962       7.97703540
         4    1       10.25095822       8.32192152       0.40465779
         5    1        9.34563813       5.33281484       1.04668619
         6    1        3.68003319      -0.32978159       6.74630293
         7    1        2.42654705       6.77727147       5.50812990
         8    1        0.94825419       3.85996220       5.49591469
         9    1        4.10759652       2.94565356       2.46259258
        10    1        8.87520259       2.85293922       8.66156016
        11    1        6.32880529       6.58249288       5.18850505
        12    1        3.29509273       4.40441229       7.11126965
        13    1        7.77269640       2.51128248       6.17610555
        14    1        8.16738299       7.82306880       6.90223856
        15    1        6.49037070      10.43455877       1.06182935
        16    1        0.76319140       9.02985453       6.01917640
        17    1        3.34077391       0.24352129       1.62421751
        18    1        9.12439595      -0.16366621       8.20935536
        19    1        6.04062678       4.35485500       8.28414601
        20    1        5.64104910       0.63269156       4.23815474
        21    1        6.45293167       0.43581024       7.45638891
        22    1        2.53069895       6.02792231       9.76311409
        23    1        0.72300202       4.26406929       8.48113643
        24    1        1.81477713       8.30908655       3.13604226
        25    1        4.14341854       7.08752164       1.38767665
        26    1        5.24336764       3.50103462       5.27163758
        27    1        0.79109671       1.62411174      10.15210500
        28    1        6.02008463       3.04972208       0.19677973
        29    1       10.68639471       7.22469624       7.87565316
        30    1        1.34716525       0.69459485       4.50882948
        31    1        8.75041993       0.99456265       3.72146677
        32    1        6.38625444       5.06728254       2.53857890
        33    1        4.72970694       8.55391480       4.12071400
        34    1        3.82475726       1.65443920       9.25963953
        35    1        3.80553069       8.91548493       9.54410337
        36    1        7.14979786       7.25415848       0.36909542
        37    1        1.70547255       4.61752482       1.86103901
        38    1        1.03265374       1.27854508       7.38732288
        39    1        0.53957906       0.11079141       1.94078444
        40    1       10.26694580       6.24258747       3.73585889
        41    2       10.28774303       0.26334757       3.61916341
        42    2        1.32994896       3.63556758       0.47258379
        43    2        7.93003960       1.43725299       7.80935902
        44    2       10.39511926       0.01379862       6.87445678
        45    2        5.04347794       2.32664994       3.89726317
        46    2        8.96975294       3.61991125       7.04387610
        47    2        2.32936424       5.05037901       5.78366277
        48    2        5.03562859      10.00526974       5.12760778
        49    2        6.52349932       1.36984808       0.33407931
        50    2        1.35393272       6.86729660       4.01908188
        51    2        3.71926792       1.92003722       0.95955716
        52    2        1.04370063       3.05625952       7.20349134
        53    2        0.96372187       2.35921254       4.69580280
        54    2        8.00297354       4.88686650       2.01429179
        55    2        3.95045752       7.12453065       9.82100604
        56    2        9.88731050       8.18418451       6.30898604
        57    2        4.91174888       0.03339130       2.61135622
        58    2        9.99512140       3.96334111       9.63022274
        59    2        8.89324517       6.66950349       8.02902464
        60    2        1.66076664       7.72218225       6.87244132
        61    2        2.10603419       0.46544680       2.88558478
        62    2       10.14720118       1.45941442       8.84201801
        63    2        5.81757207       6.55318800       1.57063428
        64    2       10.29143621       8.91123028       9.18557729
        65    2        8.02812286       6.28927724       5.62395502
        66    2        4.98325365       9.91170129       0.26729486
        67    2       10.86815524       5.50037779       7.35029262
        68    2        2.46341410       4.70120693       8.66079824
        69    2        3.62648889       8.28302709       2.63864546
        70    2        2.13113889       1.17653029       8.88152906
        71    2        7.36925150       8.87958949       1.27525090
        72    2        3.95447225       3.03850181       6.34347834
        73    2        5.48578422       3.79595451       1.70877466
        74    2       10.73658157       5.41403930       2.16652761
        75    2        8.33740068       2.41121097       4.53246550
        76    2       10.24749238       1.34347662       1.20975990
        77    2        2.48390204      10.27007789       0.53962238
        78    2        4.11056380       7.24526945       5.13831419
        79    2        5.81591000       5.05140499       4.27291732
        80    2        1.87266335       9.28111309       4.64030889
        81    2        6.41194191       7.92359421       3.90209926
        82    2        4.71871383       0.56014049       7.98904074
        83    2        2.68925865       6.05185065       1.24665390
        84    2        6.48211557       3.72039737       6.59669117
        85    2        6.33277833       7.66263739       6.69488989
        86    2        7.36360837       3.55574710       9.37842926
        87    2        4.70085840       5.46768253       7.50396038
        88    2        8.94052263       7.03673129       0.58497228
        89    2        6.42281730       6.23188173       9.10717455
        90    2        9.23263056       7.60347134       3.35193303
        91    2        4.16681660       8.70285587       7.83136551
        92    2        6.43521691       1.10417770       5.81380604
        93    2       10.23745208       4.96531188       4.96133015
        94    2        4.95749932       3.03697574       9.18273940
        95    2        2.20257108       0.49498572       6.24933196
        96    2        0.70912691       8.82743368       1.80206602
        97    2        8.05506572       9.52566323       7.70196573
        98    2        0.98383160       6.77246773       9.54257812
        99    2        2.81136491       3.92936361       2.97847995
       100    2        7.34810423      -0.11598445       3.50684164
