 # Al40 O60
 
         100  atoms
           2  atom types
 
      0.00000000      10.23889135  xlo xhi
      0.00000000      10.16276036  ylo yhi
      0.00000000      10.71132210  zlo zhi
      0.17582250       0.20337670      -0.28126043  xy xz yz
 
Masses
 
           1   26.98153860    # Al
           2   15.99900000    # O 
 
Atoms # atomic
 
         1    1        8.15586847       5.22282382       6.30382439
         2    1        8.95445154       6.91803446       3.72807234
         3    1        5.60401170       8.92457230       8.36349638
         4    1        8.25257979       7.24329678       0.13723731
         5    1        8.50571993       4.95967228       1.95576991
         6    1        3.16336918       8.04507822       5.71176110
         7    1        2.29789050       4.88643770       6.44588309
         8    1        9.95062931       2.39885999       5.52276078
         9    1        3.45528161       4.31000087       3.93238491
        10    1        8.58046282       2.29642643      10.27931552
        11    1        6.51217226       7.50682130       5.78917653
        12    1        3.48712643       6.99194745       8.44420994
        13    1        5.86403273       2.09558651       4.33825694
        14    1        8.99099562       9.44222350       5.13306103
        15    1        7.34888769      -0.24958242      10.67248070
        16    1        0.50852990       6.23722417       8.61007637
        17    1        3.38377826       2.06520534       1.82809170
        18    1        0.78592783       0.07910313       7.21337523
        19    1        6.74216272       5.99232746       8.60112427
        20    1        5.54410358       0.16575974       6.02878570
        21    1        6.86622293       1.92840086       7.73192608
        22    1        1.08736616       3.86065279       0.39551857
        23    1        9.55397329       3.78784605       8.16161623
        24    1        1.42971450       8.47547987       3.16475395
        25    1        3.05089806       6.19951447       1.39902720
        26    1        4.85700658       4.42890513       7.24496828
        27    1        0.16588300       0.60032813       0.82116637
        28    1        6.19275030       3.46201287       2.01119447
        29    1        8.73257672       8.43839762       8.11310305
        30    1        2.54349190       0.79485466       5.25402110
        31    1        8.52505505       1.19865604       3.17586212
        32    1        5.45889625       6.49304393       2.60034225
        33    1        6.56484848       9.32571863       3.41219598
        34    1        5.29053643       2.29195205       9.93887993
        35    1        2.82190934      -0.00930240       9.90372248
        36    1        4.91797375       9.12021187       0.81871016
        37    1        1.08619655       1.74822631       2.82979034
        38    1        3.04219242       1.89620548       7.83668592
        39    1        1.04745615       7.78553702       0.07926507
        40    1        0.67283833       4.43980472       3.38139954
        41    2        0.96024632      10.01484814       2.42462558
        42    2        1.60838832       2.00567708       0.82163178
        43    2        6.82819564       1.42777985      10.09348179
        44    2       10.16131050       8.14680185       4.23608464
        45    2        3.86902546       1.12322594       6.37779421
        46    2        8.47190071       2.33544816       8.38426777
        47    2        0.36726797       2.84457390       4.03506118
        48    2        1.16400288       1.65873714       6.26560189
        49    2        7.71744832       3.66596618       0.88180531
        50    2        1.78716788       4.97516828       4.69579594
        51    2        4.78651477       2.92568744       0.94196941
        52    2        9.48765466       9.75640956       7.03439675
        53    2        9.09064786       1.02998528       4.88797399
        54    2        6.61267385       5.14134056       2.50988310
        55    2        2.05778183       6.79594163       9.38405390
        56    2        7.23491443       9.19001004       5.54782977
        57    2        7.12911824       2.27485266       3.10773169
        58    2       10.19697852       3.29300052       9.85471196
        59    2        8.37341142       5.19935468       8.13489577
        60    2        2.08244265       9.44252192       6.07261290
        61    2        5.33495955       0.38024490       4.22043207
        62    2        9.03675895       0.59008186      10.68662875
        63    2        4.52082539       7.41428334       1.24729136
        64    2        8.51190647       8.53217072       9.91986626
        65    2        6.37252397       5.43310877       6.58421456
        66    2        3.54693633       0.28230573       0.87048398
        67    2        9.97653596       7.37500371       7.62437027
        68    2        0.80822176       4.78013824       7.64097925
        69    2        1.65656713       7.36144155       1.69475824
        70    2        1.76830575       0.70900611       8.52886184
        71    2        6.42193949       9.64949884       1.63614213
        72    2        4.04098463       4.54597663       5.62418318
        73    2        4.80298465       3.12334445       3.42703341
        74    2        9.25248977       5.17791434       3.70064921
        75    2        6.44112189       1.99863521       5.98159140
        76    2        9.67540007       1.78529001       2.04020362
        77    2        1.43984364       9.25178987      10.52216133
        78    2        2.90704798       8.14020864       4.01540002
        79    2        3.92033701       5.64698857       2.85249191
        80    2        2.66566884       1.19443631       3.56114613
        81    2        6.05756149       7.63411048       3.82783341
        82    2        3.90620428       1.41664815       9.33407305
        83    2        2.45765344       4.97320689       0.30518806
        84    2        5.74932480       3.22086640       8.40477899
        85    2        4.91087773       8.47007118       6.31860944
        86    2        4.86622710       5.88768202       8.48856006
        87    2        2.78906785       6.67388946       6.80931889
        88    2        8.50946027       6.89670617       1.91538052
        89    2        7.06545543       6.12028545      10.30967816
        90    2        8.11626556       6.74213154       5.33644547
        91    2        3.85072613       8.70745909       8.85058529
        92    2        6.13161681       0.26181837       7.73891415
        93    2        9.09161453       3.70530903       6.26157722
        94    2        6.98658963       7.73324872       7.79043057
        95    2        3.13876834       3.65567228       7.65226212
        96    2       10.30274028       4.55163231       1.66515439
        97    2        6.02646250       9.06967999      10.04085021
        98    2       10.08916190       6.48663049      10.31027060
        99    2        2.35147457       3.47483376       2.66106838
       100    2        8.29693408       9.63485531       3.31401215
