 # Al16 O24
 
          40  atoms
           2  atom types
 
      0.00000000       5.64338937  xlo xhi
      0.00000000       4.90773092  ylo yhi
      0.00000000      13.67409361  zlo zhi
     -2.78604027       0.10820117      -0.06299623  xy xz yz
 
Masses
 
           1   26.98153860    # Al
           2   15.99900000    # O 
 
Atoms # atomic
 
         1    1        0.64782008       3.55078693       2.83140623
         2    1        3.35546832       1.97435655       1.67941526
         3    1        3.43315958       3.53743622       4.64691673
         4    1        0.66768289       0.25356621       2.19750766
         5    1        4.80256140       1.13183888       4.63853424
         6    1        2.03450266       1.13512849       4.64691673
         7    1        0.62556904       0.27808548       7.49359132
         8    1        0.61427095       3.57031970       6.18296595
         9    1        3.45004932       0.31131117       9.03057776
        10    1        2.08098458       2.71638196       9.03868431
        11    1       -0.79497037       2.71312553       9.03057776
        12    1        3.52771055       1.87407473      12.00026408
        13    1        0.59242243       0.29738389      10.85010640
        14    1        0.56538689       1.95607110       0.00355226
        15    1        0.57306576       3.59430993      11.48190121
        16    1        1.99395689       4.40975698       0.00355226
        17    2        3.42045596       1.93651985       3.53244474
        18    2        0.59162315       1.79933858       3.47801501
        19    2        2.14320773       4.46432177       3.47801501
        20    2       -0.87439118       4.43704274       3.45006051
        21    2        1.85970368       1.19101593       1.18855946
        22    2        4.86733093       1.09412916       1.13758860
        23    2        0.60230471       0.29163029       5.64697348
        24    2        3.29825958       3.66186312       1.18855946
        25    2        0.63748589       3.55680364       8.03172611
        26    2        3.47003580       3.53933681       8.12986371
        27    2        2.05105495       1.10212108       8.12986371
        28    2        4.84944668       1.10454162       8.12738200
        29    2       -0.81046988       2.74666738       5.54730438
        30    2        2.03290217       2.74437292       5.55000994
        31    2        3.46281924       1.91185536      10.14551604
        32    2        3.41322522       0.30822628       5.54730438
        33    2        0.55289778       0.32039569      12.59971857
        34    2        3.58457287       0.18642825      12.49039433
        35    2       -0.61995223       2.65778570      12.49039433
        36    2        2.01556226       2.75446846      12.54240853
        37    2        1.95456244       4.29162390      10.20072752
        38    2       -0.67153826       4.31893896      10.22876680
        39    2        0.68656401       3.52822968       1.08051867
        40    2        0.64867774       2.04865037      10.20072752
