 # Al16 O24
 
          40  atoms
           2  atom types
 
      0.00000000       5.57588200  xlo xhi
      0.00000000       4.89666800  ylo yhi
      0.00000000      14.26597000  zlo zhi
      2.72561900       2.06929200       2.04503200  xy xz yz
 
Masses
 
           1   26.98153860    # Al
           2   15.99900000    # O 
 
Atoms # atomic
 
         1    1        6.17571846       1.31346769       1.92184015
         2    1        4.76499652       3.67341997       0.26827157
         3    1        3.35725778       0.84375350       2.31957539
         4    1        3.49960585       1.11536586       7.47726565
         5    1        2.38990618       2.32415755       4.69568682
         6    1        3.44868556       4.37614901       6.71223875
         7    1        4.83233532       3.45280543       4.11820036
         8    1        7.48999044       5.16785492       4.66099198
         9    1        2.40240673       2.72777368      12.00561265
        10    1        7.26221679       4.02261326       9.46761099
        11    1        7.07208557       5.70535669      11.83292308
        12    1        6.10684913       2.72089868       6.99189456
        13    1        9.10817109       6.09685135       9.25128182
        14    1        4.53209743       4.13838334      11.27814804
        15    1        5.59050572       3.24190107      13.91994890
        16    1        4.03237195       5.51617823      14.24237408
        17    2        6.15841163       2.80790408       0.97965843
        18    2        6.19244089       4.36838216       3.54937334
        19    2        2.03263846       0.36069346       1.10213178
        20    2        4.73094936       0.36672336       1.05944800
        21    2        1.89294804       1.56868381       3.20690446
        22    2        3.41323530       1.18847439       5.65644284
        23    2        4.81861071       1.70081757       3.33924986
        24    2        1.94473218       1.82366163       7.96493357
        25    2        7.48227667       3.55563174       5.93538535
        26    2        3.40811362       2.62391657       0.87157944
        27    2        3.16064592       3.88189018       3.87676308
        28    2        4.78226462       3.47496309       5.94234714
        29    2        6.23405243       4.30631339       8.02574940
        30    2        7.01746046       2.49496378      10.42629844
        31    2        3.27037802       4.39745008       8.47367233
        32    2        6.93368841       3.95928827      12.82895884
        33    2        5.92161830       4.92793432      10.56417904
        34    2        6.07164872       1.03974189       5.82336895
        35    2        4.95632169       1.86544132       8.23093685
        36    2        8.48799908       5.02663417      10.75938031
        37    2        5.51594535       6.28003224      13.12895792
        38    2        8.17596391       6.38914523      13.26040457
        39    2        4.01687149       2.47853030      11.11005212
        40    2        4.18725243       4.07323285      13.02956691
