 # Al40 O60
 
         100  atoms
           2  atom types
 
      0.00000000      10.54966206  xlo xhi
      0.00000000      10.14325433  ylo yhi
      0.00000000      10.22817984  zlo zhi
     -0.04818059      -0.39485618      -0.39953397  xy xz yz
 
Masses
 
           1   26.98153860    # Al
           2   15.99900000    # O 
 
Atoms # atomic
 
         1    1        4.53880729       1.27478866       9.18111780
         2    1        0.83872789      -0.05218602       5.38141353
         3    1        3.87277557       0.04712633       0.98159300
         4    1        1.30326362       7.10807078       4.08798174
         5    1        7.85711407       8.68430447       1.19488359
         6    1        3.61293421       5.10674992       1.54834514
         7    1       -0.26299229       2.57031475       7.11109959
         8    1        3.84064596       1.69553217       6.01868119
         9    1        1.97188563       2.11128195       9.08525786
        10    1        5.59989656       4.30233075       5.74727746
        11    1        4.48874384       7.33836010       5.56985884
        12    1        0.92299519       5.32546517       9.61685350
        13    1        6.56842999       8.96725754       6.70227648
        14    1        8.74441991       0.27501656       7.15851109
        15    1        6.62323196       1.80025982       4.57197921
        16    1        7.68336262       6.13197185       7.43495220
        17    1        8.68985103       3.91320206       9.25916464
        18    1        9.26914805       7.65559537       5.51748013
        19    1        1.12751696       9.99375464       2.26668616
        20    1        3.81393656       7.44066797       2.88434610
        21    1        9.96175945       1.13291634       0.09220019
        22    1        3.36759843       6.00591077       7.50807529
        23    1        4.55800455       6.97810974      10.09174114
        24    1        0.24951348       7.20876637       1.49562603
        25    1        0.24826131       8.71592932       9.23518396
        26    1        4.92470509       3.91736202       9.37763887
        27    1        0.34991257       5.32172533       6.82375657
        28    1        6.03016790       4.22319255       2.46491279
        29    1        7.66347766       6.12161949       0.48745367
        30    1        6.96913317       7.07816582       3.52489251
        31    1        6.81972540       2.06008978       7.50303802
        32    1        2.13735545       1.84925390       3.67208134
        33    1        4.11115710       9.69842799       4.30461919
        34    1        3.07015878       9.17861977       8.19983993
        35    1        8.41296046       4.53498377       5.11683373
        36    1        9.30854940       5.31854666       2.33156965
        37    1        0.90421741       3.54792763       1.24493518
        38    1        2.53787442       4.49708369       4.10904677
        39    1        8.59942373       2.59056867       2.61596419
        40    1        6.87740969       1.15814889       1.52094446
        41    2        9.04571234       7.36173785       0.93798331
        42    2        0.31535647       5.32113664       1.21675389
        43    2        2.78757075       0.55294585       9.66591010
        44    2        9.90021776       2.28695932       1.53052857
        45    2        7.48596168       5.26192713       8.96091327
        46    2        7.69448353       1.79327188       5.95342029
        47    2        3.97495976       6.83209348       1.22232579
        48    2        2.65790939       0.41981750       5.15945896
        49    2        5.40058393       4.76241917       0.82800522
        50    2       10.23023095       0.91461017       6.35098228
        51    2        4.10239670       0.51484088       7.52384725
        52    2       10.22523501       6.60657354       3.21670896
        53    2        9.09029520       3.99661045       3.53492134
        54    2        5.40535597       0.94480394       0.61293411
        55    2        7.38340536       8.59920537       2.85260295
        56    2        1.43692434       2.53766993       7.48796342
        57    2       -0.33845102       4.53739181       8.62441014
        58    2        6.47064434       7.34372050       7.29000467
        59    2        4.28088929       9.19032067       2.53033120
        60    2        6.93021583       0.23550693       7.74704393
        61    2        1.36301885       8.26698875       2.49260109
        62    2        1.41719991       5.62714632       5.28678496
        63    2        5.26904397       6.79608901       3.91075970
        64    2        8.68862051       2.39912508       8.24210952
        65    2        8.64480817       4.57351902       0.72901372
        66    2        2.87852376       2.92248802       4.98650770
        67    2        1.35647077       9.01459563       7.93704086
        68    2        0.46165848       2.05385379      10.00988338
        69    2        7.19739602       4.69231179       6.46972408
        70    2        1.74371548       5.61361254       7.98296406
        71    2        5.34236447       8.93264251       5.43788453
        72    2        3.10495577       8.00897349       4.50858331
        73    2        8.10627903       6.43951772       4.79074013
        74    2        2.56160602       6.00508032       3.06136286
        75    2        8.19557663       0.25382372       0.71648328
        76    2        9.48169192      -0.27710373       8.74852920
        77    2        3.61381455       2.82114536       9.07160897
        78    2        6.04170162       2.51676186       9.04762205
        79    2        3.65302297       7.71460972       7.18755145
        80    2        7.31341203       5.72846731       2.35932320
        81    2        4.26164382       4.20220941       2.96473090
        82    2        5.23600726       2.78956960       6.58216502
        83    2        0.52106249       7.05991445      10.01025221
        84    2        7.01684205       2.90974345       1.74074508
        85    2        3.71525922       8.49660145       9.80282226
        86    2        7.63454491       1.18345647       3.25378121
        87    2        1.59814387       3.39429964       2.89159655
        88    2        4.97243004       1.16687204       4.54398100
        89    2        6.63666378       7.62111390       0.30335585
        90    2        8.28772815       9.01497695       6.08281362
        91    2        9.87288493       3.98482272       6.07712675
        92    2        0.63020707       0.72695874       3.72846510
        93    2        6.50939547       3.70229551       4.26914101
        94    2        4.43802506       5.59971739       8.87086202
        95    2        4.29425950       5.49425745       6.01329421
        96    2        2.65129937       0.88381539       2.16250254
        97    2        9.46301867       6.54778096       6.95774613
        98    2        0.42634275       9.92734889       0.66352678
        99    2        2.39449268       4.54952563       0.35160473
       100    2        0.32472917       8.36105032       5.14110305
