 # Al40 O60
 
         100  atoms
           2  atom types
 
      0.00000000      10.23176377  xlo xhi
      0.00000000      10.33943927  ylo yhi
      0.00000000      10.65208522  zlo zhi
     -0.33448916      -0.39241628      -0.77281118  xy xz yz
 
Masses
 
           1   26.98153860    # Al
           2   15.99900000    # O 
 
Atoms # atomic
 
         1    1        6.36050772       6.00122242       6.81906615
         2    1        9.01220378       5.90250140       5.37013191
         3    1        4.12695979       8.20733493       7.26536082
         4    1        7.63358929       6.51398960       0.76262400
         5    1        8.75090642       5.20629532       2.65733416
         6    1        1.79069774       7.04025147       5.79276447
         7    1        1.04842329       4.39435338       7.09397516
         8    1        9.61355560       2.00047998       5.47551629
         9    1        3.96014532       3.57013329       2.60974650
        10    1        7.28056047       1.33018653       8.71592376
        11    1        4.71531582       7.05551160       4.45403937
        12    1        2.21067534       7.02715496       8.88919335
        13    1        6.82425765       2.36774515       3.83072526
        14    1        9.65143774       8.90856151       6.09494112
        15    1        7.06106329       9.70333943       0.03146509
        16    1        9.21130616       6.40078679       8.54478022
        17    1        3.82423692       1.16755363       1.49441629
        18    1        0.30734397       0.91176012       7.71558729
        19    1        5.39197990       6.77114917       9.41058629
        20    1        5.68418062       0.78271786       6.10262063
        21    1        5.76082255       3.61118902       8.72063848
        22    1        0.47034827       3.40882396       0.89840741
        23    1        9.07808097       3.23505389       8.66092044
        24    1        9.43986098       8.28705926       3.15596572
        25    1        2.09152134       8.05452366       3.14222826
        26    1        4.19642568       3.84844547       5.37754076
        27    1        9.48521011       0.08383424      10.17907437
        28    1        7.65087286       3.24635675       0.68998147
        29    1        7.12398317       8.76520662       7.75682247
        30    1        2.75235583      -0.34519028       5.83189075
        31    1        8.88381224       0.63561559       2.05772008
        32    1        4.20825835       6.54778130       1.20850921
        33    1        5.77046467       9.68308516       3.11623302
        34    1        3.34367379       2.85379693      10.43373271
        35    1        2.47555371      -0.02426904       9.06250671
        36    1        3.90013822       9.28690019       0.40552819
        37    1        2.06712957       1.25923953       3.94314428
        38    1        3.24696312       2.05578758       7.22685843
        39    1       -0.04579791       8.15275028       0.34506471
        40    1        1.13181286       4.20842461       4.00909954
        41    2        2.03083906       9.74941714       3.96095296
        42    2        2.77060908       2.03824528       2.57744852
        43    2        7.41875271       3.05296910       7.98189187
        44    2        9.20396672       7.67545941       4.86589841
        45    2        5.02847162       2.46214483       6.72927258
        46    2        9.12823511       1.36129421       8.75526723
        47    2        0.69281378       2.37826375       4.30160686
        48    2        2.03011125       0.64367775       7.25731051
        49    2        6.24217616       2.26667129       9.91691569
        50    2        0.28799443       4.86957047       5.47801027
        51    2        4.66558414       2.63021009       1.10882700
        52    2        8.84307404       8.39697356       7.58153612
        53    2        9.79652559       0.32713311       6.15909192
        54    2        7.49243953       4.86364405       1.42928604
        55    2        0.46497721       7.17008134       9.47779317
        56    2        6.86421832       0.14647633       7.40055890
        57    2        7.71803443       2.21668762       2.21588054
        58    2        8.86852378       3.08977006      10.54544624
        59    2        6.17816836       5.36117601       8.46590590
        60    2        1.16144600       8.67154020       6.16752794
        61    2        6.11820023       0.70276721       4.33050906
        62    2        7.59745099       0.12804141      10.06141517
        63    2        3.24728798       7.65518251       0.13701436
        64    2        6.95328627       7.81138863       9.26434179
        65    2        5.19397380       5.49671046       5.49878662
        66    2        3.12316238       0.28614167       0.15811433
        67    2        8.17926881       6.00057420       6.91869563
        68    2       -0.24453140       4.73825100       8.38987674
        69    2        0.71763041       8.16806122       1.97514117
        70    2        0.69554754      -0.11474719       9.17872128
        71    2        7.00980980       9.92265137       1.82033037
        72    2        2.92583831       4.23255235       4.04791978
        73    2        5.26281026       3.28296665       3.87951106
        74    2        8.08395373       5.07768866       4.20473605
        75    2        8.01424479       2.38648689       5.07232400
        76    2       10.11963477       1.68449537       1.13545615
        77    2        9.16908613       9.62306215       0.43917855
        78    2        1.39425927       6.74941637       4.11485632
        79    2        3.85069956       4.90100911       1.43950171
        80    2        4.30025399       9.99121369       2.05947288
        81    2        3.72998889       7.26726152       2.83734417
        82    2        3.37207834       1.56061094       9.01294789
        83    2        1.95411545       3.54073668       0.05320131
        84    2        4.21015526       4.00711072       9.44173245
        85    2        3.48513880       7.56573345       5.65570803
        86    2        3.98075464       6.73619201       8.34667391
        87    2        1.59644325       6.17169029       7.32437912
        88    2        8.58750576       7.00572264       2.22219253
        89    2        5.91932415       6.94958948       0.51490966
        90    2        5.92689591       8.18489197       3.97050842
        91    2        2.71888618       8.73919737       8.42829072
        92    2        4.44577438      -0.45404668       6.50761334
        93    2        0.12155031       2.67669417       7.07926644
        94    2        5.92120809       7.77589614       6.88671115
        95    2        2.72059984       3.70903152       6.72159040
        96    2        0.15728109       4.41196213       2.45448778
        97    2        4.97296458       8.59864555      10.18614917
        98    2        8.56725134       6.15870464      10.29763687
        99    2        3.16283964       1.42359123       5.31155013
       100    2        9.22705501      10.01275164       3.35201746
