 # Al40 O60
 
         100  atoms
           2  atom types
 
      0.00000000      10.30426372  xlo xhi
      0.00000000      10.47402383  ylo yhi
      0.00000000       9.93016223  zlo zhi
      0.28520993       0.14163175      -0.18549478  xy xz yz
 
Masses
 
           1   26.98153860    # Al
           2   15.99900000    # O 
 
Atoms # atomic
 
         1    1        0.13858438       1.42974445       5.72695176
         2    1        8.82821899       6.84065142       4.35934251
         3    1        2.69088631       3.99513911       1.28780769
         4    1        2.30728185       4.77437029       8.86682010
         5    1        6.01819130       7.16979262       5.18944956
         6    1        8.98542809       2.98822781       1.07314151
         7    1        4.07054374      10.09155050       8.18981253
         8    1        2.73996275       6.98073744       1.64124361
         9    1        0.88600237       9.13344933       7.93837873
        10    1        0.95300854       9.04762961       2.39191939
        11    1        9.84529325       3.96540878       7.53010825
        12    1        4.26318660       8.64849031       3.66660973
        13    1       10.00431234       6.16307643       1.53042767
        14    1        3.33394483       5.29799428       4.81460927
        15    1        8.26497642       1.53756088       3.43252869
        16    1        5.59185860       3.04921801       5.54106538
        17    1        3.38778124       7.75106938       6.74377853
        18    1        5.96958501       0.12741805       0.53269789
        19    1        5.30759012       4.53830158       8.16164483
        20    1        5.70786816       3.11608903       0.61527732
        21    1        5.11165022       5.96293831       2.05077522
        22    1        1.90674712       9.63233819       5.39328838
        23    1        1.66319598       1.95644913       3.26571239
        24    1        6.78439315       9.23019887       3.21682958
        25    1        7.79227154       5.30739086       0.10562088
        26    1        0.61045726       6.22369402       6.43315064
        27    1        7.91955678       8.47060686       7.58286373
        28    1        3.19600586       1.86950272       5.94306129
        29    1       10.18708026       0.57989351       0.72827125
        30    1        6.15925092       0.14603929       5.73554215
        31    1        9.40354235       9.41570462       5.16446636
        32    1        5.11069786       1.48155176       3.24388937
        33    1        1.38545980       1.77346277       8.69199493
        34    1        3.19198151       0.07678233       1.70453658
        35    1        6.32853408       1.45916975       8.02063126
        36    1        7.71320330       5.34097254       6.61770161
        37    1        0.40943534       4.41667687       4.03011742
        38    1        5.51698867       7.29310239       9.28562996
        39    1        8.47585219       8.65959682       0.31510917
        40    1        7.22142389       4.45822986       3.34783881
        41    2       10.26794561       2.00040743       9.84509450
        42    2        7.17133579       0.62266864       9.25862846
        43    2        4.94022816      10.08183840       2.79918434
        44    2        9.71273872       7.44336862       5.77356643
        45    2        7.00332297       8.33179771       9.13789427
        46    2        1.62017579       7.47145665       7.25504902
        47    2        7.39862372       3.51414930       0.43842828
        48    2        1.52898909       3.69952467       2.61249590
        49    2        2.87860214       8.81410622       2.25065975
        50    2        7.96267719       9.69268830       6.31481866
        51    2        3.71210859       3.59077946       5.46867450
        52    2        2.86519242       1.48539225       7.62183455
        53    2        7.11801637       7.06778930       6.71385428
        54    2        0.21962701       2.34206089       7.26892354
        55    2        9.14924779       0.77762251       4.72298972
        56    2        1.10994579      -0.07657624       9.16362113
        57    2        4.48662655       4.22543355       1.30229768
        58    2        3.73600137       5.21494898       8.03917385
        59    2        0.66078583       9.20995461       4.11081230
        60    2        5.44611904       2.84784851       8.77747138
        61    2        1.95147615       0.92391572       4.97241534
        62    2        0.88733164       5.03998451       7.86328397
        63    2        4.39496093       6.47694366       5.71127621
        64    2        8.53205696       3.32012472       3.18454394
        65    2        1.56838623       5.44006504       5.07203939
        66    2        7.19829729       9.41514762       1.48743185
        67    2        2.17988850       5.61571811       0.59354208
        68    2        0.42164671      10.07468852       6.43614498
        69    2        0.98950947       7.31303258       1.90245395
        70    2        1.29172504       0.52344091       2.01647525
        71    2        9.43791475       4.83134730       5.95064108
        72    2        9.96443223       9.38704198       1.15218093
        73    2        4.69059610       1.33043923       5.08539615
        74    2        3.50442886       5.88911997       3.05033194
        75    2        6.16163771       4.41786085       6.58460528
        76    2        0.52808949       2.73697466       4.54226861
        77    2        8.63957170       6.92439324       0.65567382
        78    2        9.55010979       4.65783568       0.78846451
        79    2        6.26128723       5.64272947       9.21160785
        80    2        2.77866950       9.53542707       7.06841499
        81    2        8.30480328       8.46021392       3.87050336
        82    2        6.79642089       5.43923879       1.96618106
        83    2        9.48850992       8.60599862       8.51236793
        84    2        5.92656758       3.29657180       3.81747769
        85    2        2.32074175       3.10231915       9.61106541
        86    2        5.26430701       0.14161718       7.37973829
        87    2        3.35122020       1.74560370       2.61488946
        88    2        6.75352708       0.57786214       3.82502948
        89    2        8.93081731       1.32541099       1.83036732
        90    2        7.32569221       5.79525610       4.64075566
        91    2        5.58061746       7.42561343       3.29045935
        92    2        9.72495898       5.75570994       3.29370135
        93    2        4.42984871       7.15152606       0.86592623
        94    2        6.77316048       1.89403480       6.35536639
        95    2        4.35634130      10.45539296       0.08662319
        96    2        5.79140478       9.02347081       4.97559408
        97    2        3.10161695       8.42916552       4.94255524
        98    2        8.41667857       4.74153353       8.21962953
        99    2        5.72114673       1.62197424       1.54047123
       100    2        4.45258548       8.13428824       8.14514457
