 # Al40 O60
 
         100  atoms
           2  atom types
 
      0.00000000      10.57881220  xlo xhi
      0.00000000      10.50333570  ylo yhi
      0.00000000      10.13986346  zlo zhi
      0.19052687      -0.93211171       0.09280522  xy xz yz
 
Masses
 
           1   26.98153860    # Al
           2   15.99900000    # O 
 
Atoms # atomic
 
         1    1        5.45043032       5.54461053       7.79951037
         2    1        7.26627159       7.00247430       5.58853210
         3    1        2.83557544       0.29028759       5.87209166
         4    1        5.73425473       5.94524954       0.35349318
         5    1        8.49717694       4.78654149       3.36648020
         6    1        1.31785873       7.88085143       5.35701448
         7    1        3.74647784       3.71566059       5.20546256
         8    1       10.06787566       2.35114594       3.17509331
         9    1        3.14013196       4.44088695       2.13673854
        10    1        8.54872218       4.72584129       7.97169691
        11    1        4.20307525       6.71022908       3.50475072
        12    1        1.53610593       6.00186042       9.99371324
        13    1        5.76042349       3.87178117       2.96390247
        14    1        9.14977195       9.46983598       7.14177109
        15    1        6.47718299       8.31113346       8.63684701
        16    1        0.67935747       8.17493011       8.05144014
        17    1        5.34107451       1.09430399       3.26637490
        18    1        1.49626218       5.29889707       7.04133179
        19    1        3.40510499       7.77427853       8.43850520
        20    1        6.33598867      10.24947638       6.11400761
        21    1        7.00324948       1.75464175       8.22498401
        22    1       10.47378776       4.47851217       1.04736069
        23    1        9.95255912       5.10396710       5.38815471
        24    1       -0.03866660       8.55253849       2.43360769
        25    1        2.91119732       9.28770185       3.43694900
        26    1        6.75885945       3.91203619       6.00424116
        27    1        7.90452817       0.15207354       9.92677869
        28    1        7.85615700       2.46733876       1.55581826
        29    1        4.19173286       0.33229282       8.66157134
        30    1        4.69940494       7.96836555       5.81057737
        31    1        7.99021466      10.43734226       3.84140656
        32    1        5.37606271       9.09084625       1.55455818
        33    1        7.93510849       8.47774362       1.61019024
        34    1        3.31670783       3.75543675       8.38083746
        35    1        3.84399873       1.51089722       0.57011646
        36    1        1.53158756      10.51009193       8.76282538
        37    1        1.04518436       0.42725527       1.44902299
        38    1        2.68868070       2.09937765       3.41993482
        39    1        9.02111717       7.11415595       9.70266732
        40    1        1.23474839       5.76055569       3.41557001
        41    2        1.01052516       1.50091513       2.89253781
        42    2        2.13469107       3.93842538       3.60613019
        43    2       -0.49975788       4.88630310       7.12764869
        44    2        6.52534243       8.36830216       6.69785365
        45    2        7.04280220       4.04195369       4.32395688
        46    2        8.08665241       0.34466115       8.15593427
        47    2        9.66394259       3.64085952       4.39294628
        48    2        2.73421226       1.89925494       5.22688171
        49    2        6.12026619       2.19830648       2.04344704
        50    2        1.01025644       5.72428296       5.27122546
        51    2        3.59023764       2.17268356       9.16270540
        52    2        0.02799618       9.94014835       8.11489237
        53    2        8.23391307       9.91094425       5.65160226
        54    2        8.76463300       5.26662186       9.64653081
        55    2        1.90796963       7.09258306       7.23230841
        56    2        5.60995863       0.86740888       7.56012411
        57    2        6.35494008       0.78754971       4.68311551
        58    2        3.29232535       2.68523931       1.71509544
        59    2        7.70901114       3.19102069       7.43003625
        60    2        1.93015353       9.67233724       5.01546941
        61    2        8.56603724       1.40222281       3.05733898
        62    2       10.27538809      10.37638692       0.90773325
        63    2        0.19712362       7.08447553       9.42336742
        64    2        8.40471775       8.10550159       8.36855383
        65    2        5.15429870       3.98368570       6.61121936
        66    2        6.60360398       9.95990970       2.54425378
        67    2        5.82587498       7.22122993       4.58660855
        68    2        7.21143127       5.58208109       6.89717355
        69    2        0.66896962       7.52254731       3.69387509
        70    2        3.60887444       0.41549030       3.05830277
        71    2        6.88272168       9.39030856      10.12600642
        72    2        2.72731887       6.19621421       2.49064777
        73    2        4.47309560       5.04204309       4.11382240
        74    2       -0.20214239       8.17925699       6.43187215
        75    2        8.61068089       6.12415357       4.72552457
        76    2        9.76553187       2.93102738       1.47063966
        77    2        9.56695165       7.61451033       1.16361159
        78    2        3.19738842       7.59383212       4.79913532
        79    2        1.64487061       4.70019376       0.89853852
        80    2        6.39505493       7.52885969       1.36777592
        81    2        4.19272313       8.34216881       2.60123139
        82    2        4.66693162       4.66642728       9.12021704
        83    2        1.83095982       4.76214840       8.74827326
        84    2        7.02902269       1.77905913      10.01530192
        85    2        2.64349277       0.42450546       7.63044650
        86    2        2.09340884       8.86852360       8.96430832
        87    2        3.19972339       6.76914230       9.92820577
        88    2        8.91315707       9.07823890       3.03634064
        89    2        4.93031018       4.91369096       1.65391587
        90    2        7.55508180       4.29130677       1.94064170
        91    2        2.15855585       0.86171162       0.11544721
        92    2        4.56465473       9.77400252       5.75946678
        93    2        4.40070040       6.82772870       7.16597312
        94    2        4.75979452       9.01842764       8.54432562
        95    2        2.73525544       4.09165379       6.65875221
        96    2       10.18907437       5.33201713       2.59061972
        97    2        4.93702456      10.44768200       0.37463206
        98    2        6.12717639       6.62279261       9.18624357
        99    2        4.63053606       2.68199706       3.92965034
       100    2        1.57978473       9.37029612       2.21367790
