 # Al40 O60
 
         100  atoms
           2  atom types
 
      0.00000000      10.97764732  xlo xhi
      0.00000000       9.91880059  ylo yhi
      0.00000000       9.95884198  zlo zhi
      0.77092560      -0.35049065      -0.66664441  xy xz yz
 
Masses
 
           1   26.98153860    # Al
           2   15.99900000    # O 
 
Atoms # atomic
 
         1    1        4.48464708       5.63114726       3.56710841
         2    1        4.05479943      -0.53351919       9.04576286
         3    1       10.24134264       6.33847204       6.10227295
         4    1       10.86140037       4.40377207       8.37486715
         5    1        3.08835204       7.51372905       7.75319072
         6    1        9.68477860       1.66783955       6.61747044
         7    1        3.56850389       2.24257730       5.97510412
         8    1       10.12423613       0.63736332       0.18786260
         9    1        3.99500117       7.72187191       0.97745954
        10    1        1.14893063       3.14142588       6.09837456
        11    1        9.31208653       5.44131867       1.46745518
        12    1        6.88837598       1.12901394       9.78769808
        13    1        8.20574006       1.30614039       2.61469934
        14    1        5.82494761       8.06752187       6.16383134
        15    1        0.50903461       8.58459119       7.45982474
        16    1       10.98558155       3.03594588       1.19227664
        17    1        8.43797695       3.03760444       8.99949050
        18    1       10.91721639       0.79788570       3.02881139
        19    1        6.30305776       9.57386067       3.98893189
        20    1        3.90910757       2.99355650       0.27950028
        21    1        5.49906585       2.68383378       2.42678057
        22    1        9.43004010       7.01372729       9.28652045
        23    1        7.28356944       7.07349051       3.09125492
        24    1        1.77858178       8.31363330       2.47746819
        25    1        2.21561462       5.74374023       5.89844444
        26    1        2.74032820      -0.23296602       3.93000941
        27    1        9.08015742       9.10660749       5.09319140
        28    1        5.99339746       5.35666033       0.89892979
        29    1        9.56436573       3.91281069       4.32378401
        30    1        6.89613151       5.99370965       8.53193123
        31    1        2.12780711       5.35530477       0.85083456
        32    1        7.12088309       5.36492217       5.59704576
        33    1        3.73296680       4.94116426       8.39996353
        34    1        2.64151855       2.86601339       3.24743795
        35    1        1.34440544       0.80699076       8.34677266
        36    1        1.02402984       5.70675250       3.44103584
        37    1        5.74734896       2.93122335       7.32920965
        38    1       10.02797823       8.36071598       2.37341084
        39    1        7.17587264       9.07553549       0.71759790
        40    1        6.94973168       2.10939523       5.14324085
        41    2        6.61703694       8.61987056       2.50232227
        42    2        3.13063178       0.99043858       9.15281284
        43    2       10.06965152       8.10889299       6.19201128
        44    2        6.65830492       6.55283660       6.84286682
        45    2        0.63867348       4.73948958       0.12473181
        46    2        1.99356101       1.74756020       6.86383785
        47    2        3.27984033       1.39759538       4.31513366
        48    2        6.71337431       2.52946670       8.69425926
        49    2       11.55680808       9.40694893       1.63120065
        50    2        4.84745982       6.31467012       1.89428298
        51    2        5.72538557      -0.09733609       9.47633349
        52    2        1.76360396       9.60376555       3.96276583
        53    2        8.16832658       1.00163502       5.97071286
        54    2        6.79940937       3.71958750       6.11170009
        55    2        7.26326297       8.88186227       5.36976039
        56    2        5.45453136       5.20199071       9.15696558
        57    2        9.94235554       7.04152485       0.99668917
        58    2        8.55517870       1.02772472       9.27656400
        59    2        8.11869176       4.81519281       8.87976470
        60    2        3.76726840       2.25235513       1.90070305
        61    2        9.38407918       3.88079683       0.69544944
        62    2       10.75349515       0.43583580       7.19537278
        63    2        2.27548328       7.00298282       1.35986434
        64    2        5.45626743       3.71558656       0.85298936
        65    2        4.71487026       8.50078343       7.48772822
        66    2        3.70567100       5.96486681       6.86436188
        67    2        8.89101044       5.30657279       5.34887779
        68    2        2.06432386       4.53503150       2.44579887
        69    2        2.51646144       3.59461774       5.05609710
        70    2        3.17998870       6.49396694       9.22602547
        71    2        7.01270598       2.08077089       1.55610521
        72    2        2.92704692       3.90526522       9.74293568
        73    2        0.51723565       5.42843152       5.15484748
        74    2        9.79156650       3.03551725       7.80646833
        75    2        7.62646745       7.35939667       9.37379566
        76    2        2.90473125       6.20222026       4.23952265
        77    2        9.79999891       1.70646678       1.84255367
        78    2        6.20198673       6.22662669       4.28947919
        79    2        3.51594103       8.89140095       2.32026388
        80    2        7.53307023       5.81854743       1.79705899
        81    2       11.42682841       7.35772117       3.18365983
        82    2        0.99448147       2.26105992       2.69941682
        83    2        2.24160836       8.95912084       8.41131900
        84    2        5.33620218       1.66940578       6.13267062
        85    2       10.54588894       2.72535413       5.33547229
        86    2        4.85591288       8.81195473       4.76742214
        87    2        9.20607938       0.09234302       3.72245001
        88    2        8.19656435       2.82371517       3.91503997
        89    2        1.31101277       4.41114027       7.33108660
        90    2        1.55273373       7.27802245       6.73124075
        91    2       10.18904701       6.02067807       7.91760393
        92    2       10.46296607       8.44308375       8.99900002
        93    2       10.29366296       4.78125842       2.90521370
        94    2        5.34148773       8.75474884       0.30108119
        95    2        4.10248783       3.43001566       7.43325585
        96    2        0.24494121       1.17758239       9.83497390
        97    2        8.84299109       7.69763796       3.64562083
        98    2        6.20794455       1.25988906       3.68229825
        99    2        4.91266290       3.91413337       3.59907819
       100    2        8.84293393       9.59184760       1.42605538
