 # Al40 O60
 
         100  atoms
           2  atom types
 
      0.00000000      10.14628100  xlo xhi
      0.00000000      10.03501103  ylo yhi
      0.00000000      10.29188612  zlo zhi
      0.03419211      -0.39824792       0.11860780  xy xz yz
 
Masses
 
           1   26.98153860    # Al
           2   15.99900000    # O 
 
Atoms # atomic
 
         1    1        4.89475460       5.32812386       2.28899328
         2    1        3.67477499       0.72011278       4.40180666
         3    1        5.14188273       6.69625255       7.92571028
         4    1        7.13323055       8.82840390       8.58983293
         5    1        4.10238580       9.28073616       7.28022603
         6    1        8.32455601       6.20938253       7.73072154
         7    1        3.44205806       3.50135790       4.90668902
         8    1        0.88928995       9.51558467      10.20627913
         9    1        3.23205604       7.66212434       9.66499437
        10    1        8.53742906       3.94566364       5.66183188
        11    1        8.79532872       6.67585975       4.14057244
        12    1        8.48032122       2.22293884       2.72611757
        13    1        9.07308128       9.07755808       2.19075918
        14    1        3.93798255       7.81067808       4.64250392
        15    1        1.05899691       8.72961698       4.96740467
        16    1        1.25391356       2.18409552       9.61216581
        17    1        8.87838232       4.02232285       9.93517161
        18    1        6.56609791       2.12199383       5.22179807
        19    1        6.37883989       9.94691156       3.28193757
        20    1        5.20975880       2.63598950       2.24983461
        21    1        1.76474164       1.87737248       2.53608088
        22    1        8.12942534       1.10416329      10.11246499
        23    1        6.40235825       8.04252555       0.86808715
        24    1        3.54952878       9.97576245       1.63828940
        25    1        1.24778421       5.79013237       5.43090429
        26    1        0.57423873       1.79315139       5.03908230
        27    1        7.30601565       9.13412528       6.07026085
        28    1        4.25731518       3.95907578       9.89424510
        29    1        6.16711759       6.52604684       4.68294970
        30    1        7.47982798       5.19233278       2.07622027
        31    1        2.08685884       5.14231299       0.60684563
        32    1        6.56347571       3.62420685       8.32227456
        33    1        1.05285412       6.97584317       7.99298155
        34    1        0.20875764       4.97168944       2.30076051
        35    1        1.17181412       3.53244092       7.42288444
        36    1        9.48554511       6.91990113       0.24354071
        37    1        3.44351171       2.14959174       7.91998809
        38    1        1.67953256       7.92375271       2.37675662
        39    1        5.06726391       1.00578282       9.80795679
        40    1        0.13986865      10.11350292       7.65843586
        41    2        9.87568720       8.32665721       3.67557793
        42    2        5.20049846       9.66060803       0.95007560
        43    2        5.88109515       9.35898700       7.15739916
        44    2        5.16329343       4.98587339       8.61896391
        45    2        2.66938471       3.27480542       9.21503228
        46    2        1.39424671       1.53070118       7.90464330
        47    2        2.87303184       3.17856475       6.63571261
        48    2        7.84975429       4.87884301       8.75057418
        49    2        8.86453531       0.75119332       1.55929083
        50    2        2.82261930       8.46477716       0.76985861
        51    2        3.78473538       0.45903430       8.55717029
        52    2        0.04755232       1.84302140       3.35166870
        53    2        8.50134712       9.43269158       7.39406643
        54    2        7.08014929       3.23172010       6.60822227
        55    2        4.75343572       9.33864598       3.72760156
        56    2        6.24856470       6.43294084       1.56260276
        57    2        7.47219349       7.76668636       4.93982231
        58    2        8.82696973       3.81134637       1.82380332
        59    2        9.52230846       7.02301970       8.71943597
        60    2        3.75006281       1.45946828       2.61333651
        61    2        8.92100564       6.38696677       2.04700191
        62    2        1.17509733       8.86211132       8.55049394
        63    2        1.97213542       6.41757920       9.50453326
        64    2        7.64040306       2.72112813       9.70548223
        65    2        3.27893805       9.46269869       5.69998266
        66    2        0.83673145       7.45672607       6.18318589
        67    2        4.98881800       6.89435590       5.98504136
        68    2        1.62999814       6.18638736       2.00916647
        69    2        1.08845481       5.28715260       7.18945859
        70    2        3.49051740       7.68432337       7.84328853
        71    2        6.59974021       1.58546512       2.72236011
        72    2        3.87298580       4.96859484       0.82150905
        73    2        4.51266945       3.86370525       3.42968985
        74    2        0.10803960       3.37394298       9.03425962
        75    2        5.01720936       7.69316223       9.66518652
        76    2        2.25567275       7.66847547       4.09360264
        77    2        6.17930439       4.06036222       1.64853291
        78    2        2.63635344       5.01872370       4.82513190
        79    2        2.06611039       0.90542017       0.60944299
        80    2        4.77922322       6.65101198       3.54517294
        81    2        0.26084799       8.39939653       1.06625505
        82    2        1.49645720       3.53024025       1.69240815
        83    2        7.63260348       8.08608593      10.22995644
        84    2        5.16191812       2.49076320       8.48486464
        85    2       -0.00541923       5.41313875       4.11540642
        86    2        2.03340781       9.79313999       2.84669752
        87    2        7.97235914       2.88742762       4.34772547
        88    2        4.78140684       1.96294795       5.19866355
        89    2        0.13307758       5.24678718       0.34224679
        90    2        0.42121051       0.18114716       5.79819288
        91    2       -0.05707268       3.07113970       6.09266557
        92    2        6.89124632       7.20515297       7.78706118
        93    2        7.34696600       5.47303504       3.88820037
        94    2        7.33164945       8.79974612       2.36031307
        95    2        4.90450059       2.26287029       0.51673553
        96    2        9.70070869       0.59470133       9.43817241
        97    2        8.59773276       5.64913324       6.11021210
        98    2        7.08247396       0.40143589       4.91135392
        99    2        2.26733190       2.01832902       4.42460390
       100    2        6.68779128       0.28805519       9.51875428
