 # Al40 O60
 
         100  atoms
           2  atom types
 
      0.00000000      10.25309021  xlo xhi
      0.00000000      10.37401740  ylo yhi
      0.00000000      10.43047879  zlo zhi
     -0.35694217       0.49590560      -0.58629174  xy xz yz
 
Masses
 
           1   26.98153860    # Al
           2   15.99900000    # O 
 
Atoms # atomic
 
         1    1        1.10637043       2.99654512       5.76546749
         2    1        7.07641397       1.69390665       5.07194975
         3    1        0.39586128       7.73952813       5.64820742
         4    1        0.90935570       4.23321043       8.85678260
         5    1        7.37352760       7.44501694       4.70418327
         6    1        3.32062153       3.20987153       7.89544980
         7    1        4.45508710       3.12383713       5.09198211
         8    1        0.61120466       0.20950912       7.79269780
         9    1        1.84402012       4.27533323       0.86228580
        10    1        7.54722394       5.57229909       9.34685165
        11    1        3.03033539       6.49574015       2.20927137
        12    1        5.50547984       1.12538502       9.75716364
        13    1        5.93733982       1.16054600       2.71680710
        14    1        7.66394002      -0.17050373       6.84513647
        15    1        4.77155156       5.69512574       9.49684079
        16    1        9.04198262       0.60151561       0.32318108
        17    1        3.69881598       0.51534597       6.72658312
        18    1        1.99616908       7.14318238      10.01719026
        19    1        3.55147967       9.08451963       9.22248864
        20    1        5.17737391       8.30540633       6.63012487
        21    1        6.16982708       2.46820021       7.47554710
        22    1        0.21300062       7.93239504       2.68189691
        23    1        0.39929588       4.61018487       3.61336505
        24    1        0.86872075       1.57062653       2.77199455
        25    1        2.71711379       9.50712420       3.51267130
        26    1        1.15638273       0.01493211       5.29720512
        27    1        8.74801567       0.09738459       3.36171390
        28    1        5.13468655       4.44288057       1.02248555
        29    1        8.73967496       1.89476389       8.96473649
        30    1        5.32504864       5.41387584       5.91175694
        31    1        6.03962709       5.51298868       3.28521260
        32    1        6.58532220       8.45276818       9.64079986
        33    1        5.42365119       8.61706787       2.75370325
        34    1        8.83138894       4.11516723       6.76349002
        35    1        2.20594366       1.17524469       9.74036014
        36    1        8.07172982       2.99401071       1.95795785
        37    1        3.35798424       1.20764136       1.56887157
        38    1        9.32569712       5.56061845       1.40240666
        39    1        7.59242424       8.15619623       1.33563512
        40    1        2.53506670       5.90115309       7.22988210
        41    2        1.87034155       2.48173549       1.29606710
        42    2        3.82024761       4.91620895       8.18073070
        43    2        8.17089663       5.35941942       7.74819825
        44    2        4.36576850       6.70948122       6.59077224
        45    2        9.66331856       3.31096005       8.33315316
        46    2        9.97679150       4.21308688       5.37740184
        47    2        1.31478068       2.94197502       3.95512407
        48    2        0.69707070       1.41770912       6.38487980
        49    2        4.96187115       2.35291430       1.17548054
        50    2        6.87152226       7.24559277       2.93906068
        51    2        4.62900326       2.11087673       8.48268503
        52    2        2.99234835      -0.03612376       5.13123284
        53    2        8.07024990       0.19292883       5.15027410
        54    2        1.76807318       4.05196858       7.11635437
        55    2        0.43533260       9.23565247       6.62027641
        56    2        5.41462174       1.98792067       4.22248416
        57    2        3.92042267       9.30146803       7.41285637
        58    2        3.71846537       0.34961995      10.25384927
        59    2        6.24588081       4.43782032       9.89423577
        60    2        1.57567444       6.52651902       5.92949616
        61    2        4.51275634       0.10277815       2.52326727
        62    2        1.79343051       8.78073687       9.50466584
        63    2        2.12284961       0.30517366       2.47636725
        64    2        8.97122714       0.42589626       7.93121977
        65    2        6.97590169       1.89503225       8.93060786
        66    2        5.85375604       8.41778571       4.96906257
        67    2        6.79172263       5.75139259       4.96421407
        68    2        8.96932930       7.66517100       5.21940658
        69    2        1.11650412       8.56940887       4.07389249
        70    2        5.37610734       9.73148618       9.65568999
        71    2        6.64461637      10.05335209       2.76692961
        72    2        4.73374006       5.83839169       2.13791844
        73    2        6.71154443       4.26650500       2.08436680
        74    2        8.29022491       8.90671526      10.33419170
        75    2        9.85961567       6.27545895       2.94712438
        76    2        9.45371683       3.97419678       2.33033262
        77    2        8.98363760       8.84247963       2.31358262
        78    2        4.54237127       4.73384639       4.40219797
        79    2        2.20340150       2.95936648       9.37221576
        80    2        5.83038194       8.39778704       0.99011914
        81    2        3.38154608       5.08508278       0.37866080
        82    2        0.28567535       5.03514249       0.24533258
        83    2        5.38854017       3.76442195       6.54341067
        84    2        7.61921837       1.95943841       3.29679752
        85    2        6.04229228       0.90400104       6.52279420
        86    2        1.48457722       7.52152010       1.40770712
        87    2        3.67155601       8.02502855       3.05497062
        88    2       10.34762833       0.53370721       4.04870591
        89    2        1.91236086       5.09015312       2.56444774
        90    2        0.49383224       0.65609850       9.60798933
        91    2        1.42642653       6.00641437       8.74033611
        92    2        3.78571037       7.22701830       9.71957136
        93    2        8.09639821       2.22350639       0.32836576
        94    2        6.67612121       8.73928203       7.56512102
        95    2        2.42893256       0.64522549       8.01711226
        96    2        8.13864050       6.55631685       0.43335051
        97    2        6.26070688       6.76061844       9.10828324
        98    2        7.70466031       2.80421989       6.35869064
        99    2        3.31537030       2.33146328       6.18170837
       100    2        9.59521851       1.07957582       1.90633125
