 # Al32 O48
 
          80  atoms
           2  atom types
 
      0.00000000       5.63864550  xlo xhi
      0.00000000       4.90507528  ylo yhi
      0.00000000      27.53916500  zlo zhi
      2.78110762       0.26484164       0.15428815  xy xz yz
 
Masses
 
           1   26.98153860    # Al
           2   15.99900000    # O 
 
Atoms # atomic
 
         1    1        7.05604068       4.11062061       2.29398491
         2    1        8.42122767       4.90593430       0.18134540
         3    1        0.09002550       0.05244594       5.25149845
         4    1        4.17580266       4.11439438       2.27941669
         5    1        5.53969118       3.22724453       4.70839858
         6    1        5.77460005       3.36409483       9.73625147
         7    1        5.63872489       1.60323128       2.27941669
         8    1        1.46123456       2.49539910       6.89572430
         9    1        1.49910272       0.87332866      11.55411176
        10    1        3.00904485       1.75297200       9.09855457
        11    1        2.89146942       0.04034516       6.89572430
        12    1        2.78060668       1.61989133       4.02650132
        13    1        2.95397871       1.72089226      14.40758234
        14    1        4.37306731       0.86922450      11.55873834
        15    1        7.18449168       4.18545199      15.96420610
        16    1        2.91303691       3.37542367      11.55873834
        17    1        8.47327268       4.93625403       8.57955147
        18    1        0.22423467       0.13063185      18.92775072
        19    1        4.31277760       4.18969780      15.95597189
        20    1        5.67766966       3.30762633      18.41238279
        21    1        3.02439502       0.11855197      20.60284798
        22    1        5.77179072       1.68524485      15.95597189
        23    1        5.89637886       3.43503922      23.39295094
        24    1        5.73126253       3.33884780      13.09812258
        25    1        1.59482883       2.57245813      20.60284798
        26    1        3.13743580       1.82776841      22.81418785
        27    1        2.91187813       1.69636582      17.77812828
        28    1        4.44815122       0.97124323      25.28034761
        29    1        3.03881640       3.39042145      25.28034761
        30    1        8.60615117       5.01366474      22.32580829
        31    1        1.68034646       0.97891539      25.26382411
        32    1        5.85690102       3.41204070      27.04059596
        33    2        4.37268772       0.73607035       1.26600295
        34    2        8.43244971       4.91247189       3.44773822
        35    2        2.79701848       3.44076810       1.26600295
        36    2        1.27590143       0.74329882       1.25958633
        37    2        4.36994782       4.17204150       5.73993308
        38    2        4.29675781       2.50315184       3.43617177
        39    2        5.61529123       4.78033655       3.41053281
        40    2        5.78462910       1.74368589       5.73993308
        41    2        5.79382880       3.37529688       7.99464714
        42    2        5.60970949       3.26803493       1.27371392
        43    2        6.99510815       4.07512329       5.78041566
        44    2        6.92801841       2.52698911       3.41053281
        45    2        1.62760910       2.45127025      10.40341529
        46    2        1.56537412       0.91193623       8.05024871
        47    2        2.77218404       3.24849901       8.09590865
        48    2        2.76095866       1.60844503       5.79980323
        49    2        2.93514128       0.20684024      10.40341529
        50    2        2.94032963       1.71294075      12.57330871
        51    2        4.25356679       2.47799015      10.37312220
        52    2        4.19318334       0.80929827       8.09590865
        53    2        4.37234140       0.89558333      15.06411603
        54    2        7.15288545       4.16703923      12.47981325
        55    2        0.12128878       0.07065891      10.44863459
        56    2        5.74801434       1.68827456      12.48251209
        57    2        2.93560850       3.36179142      15.06411603
        58    2        8.56582791       4.99017372      17.08135987
        59    2        1.54064676       0.89753087      15.06590608
        60    2        4.30368611       4.16752033      12.48251209
        61    2        4.49978265       4.25849950      19.43670203
        62    2        4.43070935       2.58118766      17.17055922
        63    2        5.74411335       3.34633426      14.96233128
        64    2        5.92387666       1.81398657      19.43670203
        65    2        5.75010530       4.84929940      17.14167064
        66    2        5.91948395       3.44849949      21.65693706
        67    2        7.13898575       4.15894172      19.48057192
        68    2        7.05450276       2.61025025      17.14167064
        69    2        1.70307147       2.54868066      24.10007408
        70    2        1.69496039       0.98742899      21.77810938
        71    2        2.90376854       1.69164144      19.54214950
        72    2        3.06732131       1.78692198      26.09528658
        73    2        2.89883151       3.32963459      21.82762480
        74    2        3.05709865       0.22444017      24.10007408
        75    2        4.41354347       2.57118738      24.06457609
        76    2        4.32622883       0.87945139      21.82762480
        77    2        7.33901611       4.27547292      26.34134902
        78    2        5.87919762       1.69262387      26.33815448
        79    2        0.24582628       0.14321042      24.22146672
        80    2        4.37217215       4.27949190      26.33815448
