 # Al40 O60
 
         100  atoms
           2  atom types
 
      0.00000000      10.40062281  xlo xhi
      0.00000000       9.70998150  ylo yhi
      0.00000000      10.72358328  zlo zhi
      0.02859027      -0.80767721      -0.28813912  xy xz yz
 
Masses
 
           1   26.98153860    # Al
           2   15.99900000    # O 
 
Atoms # atomic
 
         1    1        5.54154883       2.66484989       8.76200109
         2    1       -0.24815743       0.01905342       5.21723699
         3    1        3.29134351       9.23235690       0.21474362
         4    1        1.28912328       7.33012283       4.18678042
         5    1        8.38631046       7.67555859       1.82592973
         6    1        5.21294607       5.14996513       2.22565859
         7    1        0.11649955       2.33297627       7.03982771
         8    1        3.20639978       2.69395958       7.44605517
         9    1        1.08634394       1.37015120       9.67060751
        10    1        6.12845166       5.60208596       4.83463659
        11    1        3.94946047       7.22511382       5.98643876
        12    1        0.16812225       4.30397813      10.31339282
        13    1        5.18510073       7.68360209      10.03090597
        14    1        7.33188670       7.37264968       7.37193065
        15    1        6.23682744       2.75552093       4.57979095
        16    1        5.16353418       5.21255978       7.92735565
        17    1        8.18043177       3.26371127       9.10801541
        18    1        8.85731432       6.83580099       5.09010816
        19    1        2.20120039       0.18970855       2.97723636
        20    1        4.81474263       8.09760781       2.75799024
        21    1        9.80997332       1.73562047       0.25577944
        22    1        2.12831835       6.54221603       8.55760412
        23    1        3.27093760       5.59382139      10.60606547
        24    1        2.24365235       5.58733827       2.16432859
        25    1       -0.37023455       9.01700365       8.38793291
        26    1        4.43264976       2.57387673       0.31971474
        27    1       -0.38729848       5.88516237       7.94252448
        28    1        7.40998650       2.76338809       1.56993999
        29    1        7.40864589       5.32551883       0.20080253
        30    1        6.94237259       8.98036804       4.92819696
        31    1        7.69201383       0.94326637       7.40972464
        32    1        3.40213322       3.19924364       4.28921949
        33    1        4.19614115       0.36404747       5.31158586
        34    1        3.37570261       9.31116975       8.17355282
        35    1        8.92209897       3.22777811       4.51474759
        36    1        9.83171375       5.56411148       2.36481595
        37    1        1.01158517       3.10849268       2.68088113
        38    1        1.35368828       4.87171293       5.66103849
        39    1        9.31671106       0.77404910       2.68329619
        40    1        6.48127923       0.15857478       1.42282412
        41    2        8.87477255       6.15307800       0.86860692
        42    2        0.90754943       6.63951486       2.60529863
        43    2        1.84785379      -0.17994438       9.14267596
        44    2        0.21743023       1.70839059       1.85391260
        45    2        6.46251185       4.23509360       9.23071755
        46    2        6.96035377       0.95313252       5.78127388
        47    2        3.76568432       6.42773892       1.84988332
        48    2        2.27908824       1.94317857       3.41269856
        49    2        4.21695777       4.24355451       0.90783379
        50    2        0.04494293       0.44754174       6.91036715
        51    2        3.43568199       0.88495244       6.86898548
        52    2        8.56294840       6.48056772       3.31994653
        53    2        9.82512529       3.97171362       3.17862997
        54    2        5.87098258       1.87904834       1.10820169
        55    2        6.47708057       9.14905730       3.18746556
        56    2        1.49766884       2.42400991       8.14626098
        57    2        9.29195461       4.75093354       9.12551137
        58    2        3.00439753       7.37822038      10.05092518
        59    2        3.70752383       9.18625912       3.77865188
        60    2        6.92162453       1.65476781       8.82792603
        61    2        2.13997999       9.03996319       1.49545934
        62    2        0.17964692       6.29635218       5.11884490
        63    2        5.66985008       6.56124733       3.34550791
        64    2        8.83327007       2.39213210       7.61553143
        65    2        6.80360521       4.43791859       1.62175345
        66    2        2.67238277       3.56766755       5.91052362
        67    2        0.28818018       7.40772465       8.55259910
        68    2       -0.17354720       2.59564111      10.10118608
        69    2        7.32299497       4.16044828       5.17679653
        70    2        1.21760151       5.38611416       7.38306870
        71    2        5.13698020       8.63891982       5.79263862
        72    2        1.16843564       9.10369156       4.32066843
        73    2        7.03742304       7.14779545       5.49600512
        74    2        2.72371625       6.60474882       4.88765452
        75    2        7.29784983       8.44401687       0.59291818
        76    2        8.18426826       8.92885700       7.81645771
        77    2        3.92494884       2.36131392       9.28982336
        78    2        8.68807397       3.25132345       0.20543211
        79    2        2.99496869       7.73959267       7.37897476
        80    2        5.89820844       6.31373218       0.17931215
        81    2        5.04213899       4.15017163       3.82580595
        82    2        4.97752075       3.41314590       7.28153857
        83    2        1.49298654       5.38809942      10.10683891
        84    2        8.20935225       1.10202282       1.29648744
        85    2        4.76601853       9.20148147       9.21886338
        86    2        9.62040000       1.45173987       4.34693638
        87    2        2.18869995       4.37228473       3.52289571
        88    2        4.67818157       1.91775006       4.67856781
        89    2        4.87168298       9.04620913       1.20747408
        90    2        6.09613366       6.79852742       8.49926697
        91    2       -0.05105695       3.55321904       5.73939046
        92    2        9.51427577       8.81620828       2.40783811
        93    2        7.52557981       2.44558574       3.37393720
        94    2        3.61836168       5.32188739       8.76159970
        95    2        5.00092511       5.81131886       6.22461609
        96    2        3.00563418       1.59077070       0.37405521
        97    2        8.67809892       6.29461484       6.92807993
        98    2       -0.61836667       0.30974597       9.80891225
        99    2        0.99583048       4.49990516       1.35985567
       100    2        8.81886423       8.65746034       5.10613455
