 # Al40 O60
 
         100  atoms
           2  atom types
 
      0.00000000      10.55620637  xlo xhi
      0.00000000      10.34572724  ylo yhi
      0.00000000      10.33697882  zlo zhi
      0.98121359       0.16999053      -0.29566703  xy xz yz
 
Masses
 
           1   26.98153860    # Al
           2   15.99900000    # O 
 
Atoms # atomic
 
         1    1       10.67690149       2.35025638       6.29440348
         2    1        6.93706621       6.41763696       3.88782074
         3    1        2.58679478       2.65704125       1.89147899
         4    1        3.32219322       4.93813957      10.11364095
         5    1        6.77117650       6.37663420       6.58563680
         6    1       10.00127215       3.55669729       1.41998551
         7    1        3.29258030      10.03178911       9.53133413
         8    1        2.53705378       7.05286958       2.60881477
         9    1       10.86075563       8.71447596       8.97526245
        10    1        9.81875488       7.24825520       3.41356563
        11    1        0.61707716       4.68106257       7.94368365
        12    1        6.01798266       8.95419319       4.70987591
        13    1       11.12666742       6.47950023       0.66627752
        14    1        3.69595791       5.54029958       4.64918172
        15    1        8.50896979       0.37230382       2.67726201
        16    1        6.72772399       3.05011397       6.96854589
        17    1        5.04270233       8.75710156       7.77798095
        18    1        6.13527784      10.00375802       0.21353852
        19    1        4.51716121       4.50295850       6.94960172
        20    1        7.47716296       1.78491203       0.60356544
        21    1        5.06811618       4.65609783       2.04415286
        22    1        3.04173307       9.88197475       6.19355095
        23    1        2.77380405       2.36524744       4.94266240
        24    1        7.54677189       8.21759646       2.10901234
        25    1        8.76739237       4.54463374       9.78086332
        26    1        1.20922313       7.38420754       5.71586614
        27    1        9.33232393       8.37061000       6.59802050
        28    1        3.98245217       1.34233703       7.63555764
        29    1        0.11740856       0.68767964       1.01174100
        30    1        7.17477482       0.83967751       5.38300529
        31    1       11.25038601      10.08085067       4.61076847
        32    1        5.27018162       1.38814562       2.91175710
        33    1        1.69268105       2.73834149       9.46218408
        34    1        3.81673153      10.20057608       2.34036809
        35    1        6.91062387       0.11158126       8.11783114
        36    1        9.39734765       5.35279123       6.12403560
        37    1       10.60865335       3.96140369       3.99610204
        38    1        5.87639540       5.69330679       9.15525561
        39    1        8.47030841       7.47094337       9.46563984
        40    1        7.70789197       3.79937692       4.11650056
        41    2       10.76629060       2.41587875       0.24014973
        42    2        6.46671319       0.62997589       9.90345482
        43    2        4.57528425       0.13594107       1.82092818
        44    2       10.20304420       8.19402178       4.94824767
        45    2        9.01725123       9.06228246       8.68206562
        46    2        2.04060800       8.93886272       5.09152885
        47    2        8.09019924       3.37369955       0.26290700
        48    2        1.05611923       3.60585329       2.45061662
        49    2        3.29062292       8.62056444       2.54798786
        50    2        8.23164501       9.72784022       6.41424928
        51    2        3.55736700       3.90659378       5.42974725
        52    2        2.75288911       1.34233169       8.91693160
        53    2        8.60136332       6.80912643       7.11061670
        54    2        0.94360384       2.91626368       7.75277381
        55    2        8.65644546       0.66451683       4.46180134
        56    2        1.52810403       9.62876483       9.89115092
        57    2        4.48942334       2.96210966       2.33670518
        58    2        4.11936310       5.27519623       8.50111588
        59    2       10.41888026       0.21227526       2.79917458
        60    2        4.96266215       2.78337401       7.38737598
        61    2        2.99729294       1.14194207       6.17249112
        62    2        1.62540691       4.69930116       9.34155588
        63    2        5.00541749       5.86667620       5.82912593
        64    2        9.45358153       3.52829779       5.68577922
        65    2        2.26335414       6.52068004       4.51682001
        66    2        7.25787471       8.60658359       0.40554139
        67    2        2.37740403       6.48353192       0.79827143
        68    2        0.29922729       0.63259536       6.09144331
        69    2       11.20848771       7.18792006       2.32756749
        70    2        2.01689251       0.83515173       1.07772070
        71    2       11.21717109       5.81054875       6.62686553
        72    2        8.86441161       0.73939898       0.91358539
        73    2        5.63428743       0.33637589       4.40531161
        74    2        3.89469780       5.67568043       2.89955068
        75    2        6.51197045       4.72563739       7.58934711
        76    2        1.14477740       2.93592932       4.94505055
        77    2       10.29604998       7.27769443       9.91643590
        78    2        9.90560773       5.16159461       0.66768624
        79    2        7.62739294       5.90541306       9.75644758
        80    2        3.27799036       9.26243500       7.86547262
        81    2        8.26370160       6.68248012       2.70118302
        82    2        6.46152292       4.78448618       3.13603749
        83    2       11.05386283       8.33317768       7.27705312
        84    2        6.79667438       2.65846174       5.18062875
        85    2        2.84003244       3.52388912       0.35114717
        86    2        5.10100466      -0.04110558       7.81330437
        87    2        2.93304159       1.40657522       3.41162548
        88    2        8.94916999       9.04567853       2.70404491
        89    2        9.11390078       3.42903280       3.01575196
        90    2        7.67860456       5.26262969       5.24395794
        91    2        6.09698807       8.00920185       3.11698386
        92    2       10.11088586       5.65714123       4.35284565
        93    2        5.00170615       5.31591037       0.37969729
        94    2        7.56067244       1.61732123       7.42904186
        95    2        4.84356880       9.14117122       9.76366165
        96    2        6.99484980       7.60631908       5.30046679
        97    2        4.71666924       8.95292506       5.90084555
        98    2        9.43405027       4.57559174       8.16662882
        99    2        6.96054924       1.53831108       2.32642371
       100    2        6.02212799       7.25972790       8.08074899
