 # Al40 O60
 
         100  atoms
           2  atom types
 
      0.00000000      10.53287245  xlo xhi
      0.00000000      10.24527726  ylo yhi
      0.00000000      10.33204192  zlo zhi
      1.08228818      -0.64076455       0.55764394  xy xz yz
 
Masses
 
           1   26.98153860    # Al
           2   15.99900000    # O 
 
Atoms # atomic
 
         1    1        1.11176198       3.63886886       5.89302558
         2    1        9.05156678       2.37752951       4.58907116
         3    1        1.72220090       7.92829452       6.31395979
         4    1        0.18823889       6.41114530       8.54238544
         5    1        7.87969786       8.34411258       4.29333320
         6    1        3.13497757       3.79267418       7.69197677
         7    1        3.75388670       1.76462610       5.22138541
         8    1        1.39627437       9.93193295       8.50786309
         9    1        2.50675111       4.38276656       0.75654011
        10    1        7.90969077       6.59562339       9.21016969
        11    1        5.51265520       7.27630594       3.78755092
        12    1        5.38046118       2.53368568       9.18210952
        13    1        6.51579831       1.54170283       4.04630038
        14    1        7.80933209       1.12005048       7.22923333
        15    1        2.95099276       7.28401984       9.80106537
        16    1        8.84840377       1.42996599      10.12007801
        17    1        3.39356328       0.69061864       7.85226827
        18    1        2.77894149       9.52100904       1.18881631
        19    1        5.52583097       9.34766549      -0.03629977
        20    1        6.26854382       8.86088797       7.20624970
        21    1        6.32752953       3.54683945       6.09351524
        22    1       10.85581419       8.03450628       3.01520950
        23    1       10.31067920       4.59328845       2.85533934
        24    1       10.33078990       1.23989162       2.61540319
        25    1        3.94513357       9.06315662       5.15200647
        26    1        0.60396533       1.01885485       5.37892095
        27    1        8.48110091      10.13337506       1.38533165
        28    1        5.21409618       5.34922246       9.82779415
        29    1        7.84031884       3.83974724       8.30303800
        30    1        7.11443117       6.26099993       6.30913659
        31    1        4.57331801       4.74312673       2.26986613
        32    1        8.96029852       9.24646527       8.65841840
        33    1        5.86140240      10.11616657       2.65873298
        34    1       10.24273342       6.40085227       5.27265910
        35    1        0.98796512       2.49378835       9.23600724
        36    1        7.38199125       3.01082050       1.66368120
        37    1        2.96242489       1.80346328       1.93715485
        38    1       10.15927913       3.90780025       0.34245873
        39    1        8.42783638       7.07824202       1.94976872
        40    1        3.98897929       5.70840104       5.46906925
        41    2        2.67288925       2.62348232       0.17760563
        42    2        5.56411874       5.21915192       6.13067030
        43    2        9.49183378       7.62693690       8.95200089
        44    2        7.14008913       7.33350142       7.74451830
        45    2        9.30583320       5.17555838       9.01886780
        46    2        0.27896106       4.83262226       4.70131382
        47    2       10.26869676       2.87250978       3.28159021
        48    2        1.97704583       2.14767968       5.15087832
        49    2        6.36138926       1.25424103       2.22389681
        50    2        7.09833244       7.12360340       3.12512776
        51    2        4.32241431       3.99583778       9.00117852
        52    2        4.97059813      10.19108937       6.11179768
        53    2       10.20375538       2.46834779       5.99534906
        54    2        2.80999047       4.60761238       6.09770034
        55    2       10.28097798      10.06903410       7.68516795
        56    2        3.30091653       3.54153442       2.35532007
        57    2        5.07983767       9.29891837       8.47091230
        58    2        3.53864259       0.16391966       1.24992859
        59    2        6.84506856       5.11791706       9.12066218
        60    2        3.40467190       7.38598488       5.70237358
        61    2        3.83736048       1.16755647       3.50609133
        62    2        1.88811346       8.28598906       8.12309516
        63    2        1.40784661       0.88590440       2.13326765
        64    2        8.62152175       2.19222972       8.42391277
        65    2        6.37552161       2.68321839       7.66672546
        66    2        6.19757407       7.77255315       5.46881736
        67    2        8.58115924       7.02144720       5.35693684
        68    2        0.66961719       7.80538555       4.74286051
        69    2        2.34024114       9.65709381       5.73755005
        70    2        4.26367353       1.22776138       9.39805054
        71    2        7.19641134       9.96687470       4.16369903
        72    2        3.72338583       5.70574680       1.07336721
        73    2        6.01956029       4.26812804       1.32205430
        74    2        8.64726852      10.28212863      10.06148614
        75    2        9.90853004       6.39683931       2.80042712
        76    2        8.86894624       4.13381951       1.50164730
        77    2        9.11810998       8.71472036       2.68110278
        78    2        4.60069869       5.77149951       3.74911934
        79    2        1.34807556       3.59263905       7.82897179
        80    2        6.83391526       9.20942435       1.27272665
        81    2        1.54709790       6.03032016       9.56243942
        82    2       10.66843471       2.29940130      -0.07666954
        83    2        5.33170404       2.63548018       4.92932638
        84    2        7.64986847       2.93131869       3.52322743
        85    2        7.65037568       1.69529301       5.57817965
        86    2        1.64974134       8.52851961       2.09757550
        87    2        4.66487547       8.77547141       3.51327437
        88    2        9.82710251       0.63426455       4.21491724
        89    2        0.86557021       4.59782789       1.40598096
        90    2        0.96582144      10.59592026      10.09676510
        91    2        0.55657691       6.49228333       6.83211045
        92    2        3.85507033       8.39807549       0.14864419
        93    2        7.34601791       2.21315758      -0.00031254
        94    2        7.75415422       9.91676839       7.44894441
        95    2        1.59118074       0.95189528       8.27734366
        96    2        8.08164254       6.80410557       0.33516121
        97    2        4.42685794       6.69507301       9.12538537
        98    2        7.86133708       4.53754914       6.56666066
        99    2        3.74647696       2.25768451       7.03339640
       100    2        8.98805937       0.90122978       1.55593236
