 # Al16 O24
 
          40  atoms
           2  atom types
 
      0.00000000       5.65478400  xlo xhi
      0.00000000       4.91762000  ylo yhi
      0.00000000      13.63123800  zlo zhi
     -2.79866600       0.15377800      -0.50718300  xy xz yz
 
Masses
 
           1   26.98153860    # Al
           2   15.99900000    # O 
 
Atoms # atomic
 
         1    1        4.33557104       0.26959204      13.10910706
         2    1        1.51522212       0.24851469      11.37203751
         3    1       -1.42012643       3.55908808       9.00287382
         4    1        0.04845972       2.73328200      11.43885784
         5    1        2.96885051       2.68049349      11.36610792
         6    1        1.38066553       4.00514766       3.91356932
         7    1        2.77445369       4.37169853       6.67703020
         8    1        1.38312691       0.63519977       4.55237003
         9    1        0.02233200       1.25009098       8.77547751
        10    1        1.44509954       3.68245803       9.09098614
        11    1        2.83478640      -0.13671478       6.75377407
        12    1        2.87412250       1.52403972       2.36301600
        13    1        4.29178951       2.09583317       5.18315557
        14    1       -0.12051462       1.50632383       2.34577249
        15    1       -1.46602295       4.00901808       0.85401069
        16    1        1.36632481       2.48678013       0.18414439
        17    2        2.83601433       1.11986049      12.41173292
        18    2       -1.26046117       2.06175767      10.24495223
        19    2        0.18200052       1.11463004      12.44657437
        20    2       -1.33950325       3.54445602      12.45792919
        21    2        1.42012631       1.98370381      10.33790364
        22    2        0.05446183       2.92576425       8.14373778
        23    2        1.31893520       3.89933395       5.72126232
        24    2       -0.00432833       4.25680713      10.32845719
        25    2        2.80125439       3.04439463       8.05577540
        26    2        1.52087672       3.43130109      12.48966271
        27    2        4.30045157       0.28692292       8.03568296
        28    2        2.98162514       4.30862499      10.30028142
        29    2        0.01058428      -0.02991833       3.40145734
        30    2       -1.36205571       3.85958042       5.75733058
        31    2        2.72832939      -0.00822905       3.39874473
        32    2        0.01940335       1.13279353       5.77083913
        33    2        1.36804352       0.86207495       1.14546019
        34    2        1.35878372       0.23413787       8.03117102
        35    2        1.37224896       2.23117375       3.38718544
        36    2        2.76580059       1.30861270       5.70476852
        37    2        4.18963799       0.80222898       1.19762694
        38    2        2.76611661       3.03911233       1.14143898
        39    2        4.22720098       2.23394144       3.39844484
        40    2       -0.04212280       3.05267270       1.12445445
