 # Al40 O60
 
         100  atoms
           2  atom types
 
      0.00000000      10.17372957  xlo xhi
      0.00000000      10.42808365  ylo yhi
      0.00000000      10.50657485  zlo zhi
      0.42723491       1.53995068       0.30264440  xy xz yz
 
Masses
 
           1   26.98153860    # Al
           2   15.99900000    # O 
 
Atoms # atomic
 
         1    1        3.83576704       6.81186136       3.30495617
         2    1        5.29207120       0.44601927       5.63023570
         3    1        7.79520357       6.94483532       6.94052178
         4    1       10.84845221       8.25470188       9.73960854
         5    1        6.18549479       9.34989500       8.27856677
         6    1       10.69611829       8.13416232       7.23746890
         7    1        4.56711382       3.50106939       4.93680533
         8    1        3.01890331      10.48224966      10.02287967
         9    1        4.50195788       8.31459550      10.49589891
        10    1        9.55273381       4.84227797       5.81187294
        11    1        9.00736233       8.02350673       3.11793157
        12    1        7.55223742       2.89456185       1.14567464
        13    1       10.16973775       1.20877836       3.10322993
        14    1        5.29012328       8.26992249       5.06748894
        15    1        3.25198987       8.58072055       7.26757276
        16    1        0.82998685       2.39226949       0.52971723
        17    1       11.05458624       4.37308900       9.41255053
        18    1        7.59748035       2.67979431       4.29267034
        19    1        7.74253702      10.28976695       3.67580454
        20    1        4.36196244       3.00191841       0.68256562
        21    1        3.42335936       1.88329870       2.84897124
        22    1        8.61838026       0.05585453       0.90803546
        23    1        5.93848422       8.28833114       0.16052523
        24    1        3.75102753       9.31756535       2.23131723
        25    1        2.31754083       5.68154073       5.87498615
        26    1       10.98666569       2.37110304       5.25458835
        27    1        8.80666886      10.00612420       6.11505392
        28    1        6.35234768       6.09684085       9.92882208
        29    1        6.99728445       5.46573580       3.87042780
        30    1        7.78354371       6.38911337       0.75570452
        31    1        2.26895411       5.04688223       0.23910285
        32    1        8.34397036       4.39638837       9.03594088
        33    1        3.90688167       4.99394706       7.74327044
        34    1        1.80534735       4.36165722       3.45235911
        35    1        2.66834345       2.64038103       7.86902542
        36    1        0.80016133       6.74283530       1.61686332
        37    1        5.81968014       2.13442627       8.25457017
        38    1        2.59611542       9.91968517       4.88096530
        39    1        5.41899090       0.55809383       0.44982839
        40    1        8.81931247       2.31643534       7.32782008
        41    2        8.35180361       9.42972574       2.16978075
        42    2        7.31743072      10.03540469       9.50317342
        43    2        6.30939875       8.09490648       6.76423417
        44    2        7.45413923       5.85809084       8.38845535
        45    2        2.55466908       4.27845249      10.18132302
        46    2        1.88143775       1.91535680       6.52055980
        47    2        4.46128393       1.76263190       4.91472482
        48    2        9.75903558       3.54215354       8.23041272
        49    2       10.27059609       0.81136787       1.39983783
        50    2        3.61289693       7.52657281       1.70460173
        51    2        5.61319752       0.52288577       7.42109809
        52    2       10.77786163       0.55452833       4.63193006
        53    2        9.17322351       0.66017669       7.18561780
        54    2        9.05801128       3.04931097       5.57836810
        55    2        6.15836021       9.63763059       4.31487262
        56    2        5.97601407       6.47123366       0.66536468
        57    2        8.79979346       9.12068751       4.57364715
        58    2        9.16735009       2.88118698       0.35936184
        59    2        9.66854031       5.41774320       9.94229340
        60    2        4.97050599       1.81392611       1.92568297
        61    2        9.53151657       6.84576753       0.65131371
        62    2        3.86784826       9.27764237       8.81624389
        63    2        1.74888508       6.79360305       0.07434442
        64    2        6.16518660       3.53983052       0.12211319
        65    2        4.23462063       9.59613854       6.04866571
        66    2        3.26489954       6.82172591       7.02531646
        67    2        8.08698859       5.84561619       5.40974241
        68    2        1.38847804       5.12399417       1.93435457
        69    2        4.39589723       3.09260166       7.86128564
        70    2        6.00435405       7.96395500       9.58174158
        71    2        8.35861549       1.37225706       3.21499394
        72    2        3.95534261       4.73250905       0.78269328
        73    2        2.55408428       5.95546829       4.10303917
        74    2        2.10193470       4.43483324       7.84674633
        75    2        9.17724523       8.34016403      10.31120393
        76    2        3.65026330       8.45577473       4.01493670
        77    2        7.60280286       3.81714985       2.75654249
        78    2        3.87328146       4.70279570       5.98388785
        79    2        2.66679353       9.61470268       0.71969891
        80    2        5.49062002       6.63943915       4.12219538
        81    2       10.71030687       7.81443315       2.93531438
        82    2        2.50326845       2.42022887       1.30624442
        83    2       11.51620415       9.86437764      10.18458227
        84    2        7.32160334       3.01951231       7.91442433
        85    2        1.02723822       4.36553650       5.24113563
        86    2        2.78500176       0.28251604       3.27437185
        87    2        0.77396084       2.76816815       3.44448905
        88    2        6.29999840       3.89618402       4.77563626
        89    2        4.80428750       5.58492310       9.08939834
        90    2        1.78406322       9.06872600       6.32421735
        91    2        9.96282427       5.94478003       7.19118176
        92    2        8.90050154       8.41886430       7.04216512
        93    2        7.92235594       6.59303850       2.71747841
        94    2        5.38670559       9.50310654       1.44924951
        95    2        5.89055404       1.96673312       9.98239300
        96    2        2.52613890       1.70776305       9.42131280
        97    2       10.80982990       6.66763086       6.12264440
        98    2        7.14610000       0.97129118       5.28309636
        99    2        3.39132386       3.53326845       3.56611505
       100    2        7.18966125       1.08448280       0.63283906
