 # Al40 O60
 
         100  atoms
           2  atom types
 
      0.00000000       9.82270289  xlo xhi
      0.00000000      11.22348388  ylo yhi
      0.00000000      10.20584718  zlo zhi
      0.22397336       0.66780758      -0.19961792  xy xz yz
 
Masses
 
           1   26.98153860    # Al
           2   15.99900000    # O 
 
Atoms # atomic
 
         1    1        2.65389191       6.13858262       6.17792211
         2    1        6.21061729       1.33512683       7.92900187
         3    1       10.08714174       7.84152644       4.08666707
         4    1        3.76550849       6.38212328       9.11331818
         5    1        3.74533906       0.50534131       5.90086918
         6    1        8.01818075       3.78001395       7.87326161
         7    1        2.27702966       2.95368615       6.10830149
         8    1        4.72780873      -0.12369591       9.90440278
         9    1        3.08006584       0.74754745       2.68565878
        10    1        9.29780826       6.06707248       5.92754890
        11    1        8.71137712       6.35480620       9.22437678
        12    1        8.49439180       0.98864173       9.98487977
        13    1        7.19759112       0.44924567       5.07085233
        14    1        7.62874985       9.75468412       9.14422965
        15    1        1.13338438       7.80386280       8.12377424
        16    1        8.37569151       3.82968315       0.42624466
        17    1        1.55264809       4.65010854       8.68849346
        18    1        1.55800892       9.76150494       2.62592243
        19    1        6.19204869      10.70945585       2.03062343
        20    1        4.70737012       8.97781444       7.71489585
        21    1        5.04174944       2.35715879       4.48791332
        22    1        2.68142519       9.24542011      10.15237191
        23    1        6.09299748       7.94546743       3.41155548
        24    1        7.85266476       2.26748194       2.97372219
        25    1        2.66674907       8.90742364       5.72568571
        26    1        0.72939896       1.15487453       4.68605249
        27    1        9.58206483       9.93271825       6.42396641
        28    1        5.59881334       5.38383360       0.04157393
        29    1        7.34217423       4.14658060       5.01805952
        30    1        6.25157924       6.16427735       7.08539185
        31    1        4.01734609       4.90838796       2.59589713
        32    1        7.40080982       8.40963936       6.10517646
        33    1        4.23930748       7.86202814       1.57750504
        34    1        1.15019526       3.16410117       2.80662981
        35    1        1.86072110       0.68555647       9.96451522
        36    1        8.23029876       5.83214358       2.54297737
        37    1        3.36971409       2.83061577       0.34815258
        38    1        1.08060731       5.42930278       1.32669778
        39    1        8.93423270       8.22842179       1.10733860
        40    1        4.80709567       3.98127695       6.83969914
        41    2        4.35417525       0.22370553       1.47578142
        42    2        3.91290697      10.04282434       6.43887980
        43    2        9.04913923       8.75091632       5.22089971
        44    2        6.03663994       7.88838222       7.35384472
        45    2        9.78759944       4.90680096       9.41156610
        46    2        8.64772260       4.30152686       6.26708610
        47    2        1.51002737       2.89722241       4.52142350
        48    2        8.55476022       2.73556898       9.14150142
        49    2        9.80298943       8.92369811       2.51632939
        50    2        7.44905282       7.42556405       2.45901488
        51    2        5.08791673       1.54376012       9.39751265
        52    2        9.00941358       0.28339386       5.54014872
        53    2        6.38384000       3.05739110       7.53860688
        54    2        4.80373480       5.34278099       8.06544353
        55    2        8.22517324       9.42676906       7.45316986
        56    2        4.42891497       4.23125988       0.80663026
        57    2        3.55832718       8.18189246       8.87894988
        58    2        7.24273270      10.71529196       0.61132035
        59    2        7.25638878       5.40312394       8.58712256
        60    2        2.62281830       2.30893916       1.99801095
        61    2        4.79720041       3.68719951       3.49390034
        62    2        1.31907508       9.19836207       6.96256356
        63    2        1.88306426       8.75455041       4.14405189
        64    2        7.64759007       2.30584292       1.23638348
        65    2        7.47759261       0.39843160       8.64497624
        66    2        6.35057180       8.94257853       4.79916869
        67    2        7.60801119       6.63997365       5.98339254
        68    2        2.21670680       4.92522621       2.58816835
        69    2        2.19504496       6.26427781       7.95789921
        70    2        4.52595118       6.83681047       0.13219062
        71    2        6.91339418       0.37774448       3.28527731
        72    2        4.68329484       6.63765654       2.84800728
        73    2        9.55988101       6.54353407       1.37396054
        74    2        9.50526597       6.84634647       7.70841667
        75    2        1.09794277       8.42220800       9.82571672
        76    2        9.26038976       6.21985073       3.98665691
        77    2        9.54781862       1.89915790       3.30686268
        78    2        3.67762289       7.53191441       6.07754270
        79    2        2.52347180       2.30935431       9.75271103
        80    2        8.33407454       7.96111289       9.96174372
        81    2        2.66096788       8.61098000       1.45657065
        82    2        9.88854151       3.94545568       1.52223078
        83    2        2.00953139       1.05621050       6.08380634
        84    2        4.18779132       0.83597950       4.13089962
        85    2        5.91357482       0.44521949       6.34978051
        86    2        1.69023758      10.88129658       1.18513788
        87    2        5.37677749       9.09614648       2.22789235
        88    2        6.90226779       2.34328876       4.72742312
        89    2        2.69405635       5.20908558      10.04355318
        90    2        1.73020133       0.02458797       3.63190860
        91    2        1.12693098       6.66805469       5.55096048
        92    2        3.33878177      10.74739377       9.23215537
        93    2        7.75318099       4.21048964       3.30958743
        94    2        5.78425852       9.82746975       9.01556198
        95    2        4.20411480       2.35225472       6.18670005
        96    2        1.37077213       3.50992167       7.46080057
        97    2        7.19288126       5.21640856       0.86446710
        98    2        5.92923501       4.87339491       5.79303981
        99    2        3.27788646       4.54072653       5.98733873
       100    2       10.06034488       0.38273834       9.62574274
