 # Al40 O60
 
         100  atoms
           2  atom types
 
      0.00000000      10.22490604  xlo xhi
      0.00000000      10.64648573  ylo yhi
      0.00000000       9.90973192  zlo zhi
     -0.39486316      -0.22003775      -0.17080526  xy xz yz
 
Masses
 
           1   26.98153860    # Al
           2   15.99900000    # O 
 
Atoms # atomic
 
         1    1        9.51396831       3.75423149       4.12808781
         2    1        8.24590135       1.08270799       7.26201566
         3    1        1.26079501       8.42046672       5.73135113
         4    1        0.99169381       4.46095145       8.56437691
         5    1        6.18820716       9.34337849       5.39793909
         6    1        0.68410129       2.39884305       6.40818443
         7    1        3.42970627       1.60551542       5.06096183
         8    1        3.67449785       9.79589893       7.33207825
         9    1        0.90117648       3.79290074       1.65666667
        10    1        8.01728847       6.09493054       8.60582347
        11    1        4.84123114       6.59685042       0.56898113
        12    1        5.97721617       1.19875154       0.21745321
        13    1        6.92907579       1.68790469       4.53486992
        14    1        5.76624383       8.43749111       8.53151891
        15    1        2.21820659       6.89234993       0.63019890
        16    1        8.33578970       2.73522920       9.76270698
        17    1        3.17523159       1.79070185       8.12950477
        18    1        0.50567570       8.96781929       1.36823411
        19    1        3.21032959      10.08266580       0.32189019
        20    1        3.04744982       6.75800129       7.48252295
        21    1        5.06603263       3.76891428       5.03619513
        22    1        0.76293724       6.70065751       3.59566041
        23    1        7.53888584       7.10915681       3.62432530
        24    1       -0.02746662       0.98052237       2.30680662
        25    1        3.17882162       9.68597632       3.45459825
        26    1        0.25049417       0.16601514       5.11145865
        27    1        8.48292366       0.00356943       0.00756172
        28    1        5.70544818       3.74855849       9.43762744
        29    1        7.66242673       3.73238102       6.84102408
        30    1        5.80293894       6.37056184       6.28185438
        31    1        3.51036208       5.11052883       2.85285881
        32    1        8.76698446       9.11154184       7.45901419
        33    1        5.76749678       9.75469002       2.66454190
        34    1        9.68419523       5.95534583       6.49825884
        35    1        0.76835067       0.76220453       9.62812905
        36    1        6.58391985       4.09848335       2.38294408
        37    1        2.95001260       1.89788043       1.87341421
        38    1        9.11822037       5.78301044       1.79498938
        39    1        7.58229971       8.25271032       0.87197763
        40    1        2.25903013       4.85087705       5.57839700
        41    2        1.59149746       2.39955249       0.62763892
        42    2        4.05371893       6.17807517       6.19087670
        43    2        8.85417067       7.31466018       7.39041150
        44    2        6.35698660       6.73103679       7.93137207
        45    2        9.62765279       5.16203648       8.11459102
        46    2        8.67296827       4.72634661       5.62908329
        47    2        0.17631763       2.57982474       2.99214287
        48    2        1.69793831       1.19822131       5.53351681
        49    2        6.90785805      -0.01833453       1.19298437
        50    2        6.83817269       8.30227044       2.53994991
        51    2        4.59862075       2.62764727       8.73882931
        52    2        3.88932371       0.80363023       6.71247068
        53    2        9.50641725       1.43038353       5.89821952
        54    2        0.72172102       3.86330970       5.41950247
        55    2        7.50987923      10.02833721       6.54561468
        56    2        2.72145551       3.61119646       2.38073322
        57    2        2.49046426       8.43525265       7.02457392
        58    2        4.28907560       1.21824032       0.90413580
        59    2        7.17472645       4.29770377       8.57876316
        60    2        2.38015183       5.76409819       4.04304992
        61    2        3.14343077       0.84551838       3.40287312
        62    2       -0.08107887       9.41736406       6.22059915
        63    2        1.38221895       0.08995602       1.38049919
        64    2        8.99304939       2.63655821       8.02360918
        65    2        7.20107198       1.05723417       8.92122051
        66    2        4.69505082       9.36832612       4.28638210
        67    2        6.67147592       7.48033853       5.13273792
        68    2        0.60171840       6.79437219       5.45740254
        69    2        1.82062638       8.74209491       4.09571648
        70    2        4.35375589       9.77362190       9.01255801
        71    2        7.08850071       0.00388328       4.06949434
        72    2        3.57660951       6.52377606       1.79368179
        73    2        5.54922803       5.02606789       0.80381433
        74    2        7.41051372       8.97940339       8.95884667
        75    2        9.24059075       7.22792969       3.35309742
        76    2        7.52628664       5.55797411       2.66182148
        77    2        9.03180307       9.34906694       1.03582216
        78    2        5.11963301       4.56104102       3.42611372
        79    2        1.62596568       2.81270186       7.90227759
        80    2        5.89838600       7.90598644       0.27958029
        81    2        1.58693125       5.18731605       0.28718899
        82    2        9.40024570       4.15891840       0.84216866
        83    2        5.18816433       2.07380391       4.52049714
        84    2        7.67477533       3.05751713       3.59630573
        85    2        7.12007633       2.12258784       6.27283613
        86    2        0.88103653       7.25347823       1.84181673
        87    2        3.99205264       9.48853361       1.88328271
        88    2        9.63725071      10.43746287       3.51308133
        89    2        0.09491217       5.01936183       2.97938340
        90    2        9.70792401      -0.05152344       8.53201162
        91    2        1.86287974       5.43597675       7.29477436
        92    2        1.94604780       8.68779360       0.21443659
        93    2        6.79032352       2.88783936       0.83974167
        94    2        5.15994861       8.89732041       6.86845680
        95    2        2.39833986       0.33886786       8.89971946
        96    2        8.46887171       6.74502228       0.39797979
        97    2        3.40481040       6.65540944       9.18504571
        98    2        6.16703643       4.61125082       6.09966901
        99    2        3.38603261       3.44571671       5.53444862
       100    2        9.39037897       1.42088949       0.72142947
