 # Al40 O60
 
         100  atoms
           2  atom types
 
      0.00000000      10.55428620  xlo xhi
      0.00000000      10.15676009  ylo yhi
      0.00000000      10.39787265  zlo zhi
      0.03566804      -0.93297559      -0.73099607  xy xz yz
 
Masses
 
           1   26.98153860    # Al
           2   15.99900000    # O 
 
Atoms # atomic
 
         1    1        5.19041263       0.88449833       7.94664187
         2    1        6.50384907       0.32495014       5.51727895
         3    1        2.40678875       3.51116446       8.60396210
         4    1        0.52452023       2.06793653       3.72802207
         5    1        9.33154110       1.90356846       1.44883406
         6    1        2.73984615       7.11712420       2.19134979
         7    1        1.18096471      -0.34224384       6.05814519
         8    1        0.19371800       2.65899775       6.49287931
         9    1        3.65370897       1.16755215      10.26518634
        10    1        7.22917554       3.69920875       0.03078820
        11    1        4.56386538       4.42933888       6.66089095
        12    1        3.39879955       8.13624943       8.26173733
        13    1        4.07682985       9.07780378       5.58678114
        14    1        8.50480127       9.00252721       6.65468362
        15    1        4.87965898       0.89745277       2.79908871
        16    1        6.64683249       8.41251087       8.55134221
        17    1        1.77081617       2.81029090       1.58266841
        18    1        6.29710605       8.48320004       3.12436005
        19    1        1.99496196       9.90754970       3.27188434
        20    1        5.62797221       9.28437474       0.12824081
        21    1        9.23321480      -0.27633232       9.74791422
        22    1        3.83154119       5.41044031       9.96952304
        23    1        8.60297715       8.88690438       1.22842609
        24    1       10.24099843       6.89038856       2.25478014
        25    1        2.58184243       9.38659333       0.12779672
        26    1        3.18941627       1.82095172       5.32057407
        27    1        0.04073107       5.45169291       7.38252930
        28    1        5.47981276       5.52946171       2.15447613
        29    1        9.44804763       2.85191078       9.38705137
        30    1        0.66912257       8.06846277       8.04708095
        31    1        8.71479892       6.03304515       9.48966225
        32    1        5.90399865       3.28582693       4.38350594
        33    1        3.03423167       4.54964572       3.81380067
        34    1        2.56560153       6.76630578       5.58133733
        35    1        7.54246582       5.85456251       6.88524574
        36    1        7.87897721       5.98999450       4.06616130
        37    1        1.66473609       5.10900280       0.47689417
        38    1        7.65825427       3.10660367       7.40076873
        39    1        9.33293158       9.88667006       3.75246830
        40    1        9.07173395       3.68352152       3.29917117
        41    2       10.24665785       8.43176571       3.06372642
        42    2        1.49492969       1.19801629       2.21470975
        43    2        5.38808047       1.55742754       9.68173300
        44    2       -0.42122754       3.13863584       4.88917829
        45    2        8.07377579       3.23273368       1.54953559
        46    2        9.37793380       2.30406185       7.61862049
        47    2        4.38139998       7.05625276       9.53161486
        48    2        0.52528759       0.29121775       4.37766628
        49    2        6.03938406       5.02650999       0.51643634
        50    2        0.30810645       9.27951528       9.58639085
        51    2        1.58436550       1.47249374       6.29218592
        52    2        9.35718374       5.59637786       3.15138340
        53    2        9.21175368       1.48046703       3.18390399
        54    2        3.12860745      -0.59232384      10.27946241
        55    2        7.87725441       9.13060896       2.81187559
        56    2        8.32898091       9.14502946       8.50302704
        57    2        1.95511740       7.42949760       9.25127553
        58    2        7.47196078       3.44216348       9.15348582
        59    2        7.38448396       9.16235016       0.00152766
        60    2        3.93458938       7.56504530       6.57668627
        61    2        2.51984843       8.86726882       1.87436919
        62    2        8.91871220       4.75322198       7.08634788
        63    2        4.88449712       4.41442504       3.39824584
        64    2        8.83518376       1.39170497      10.11546196
        65    2       -0.26840105       8.99998548       6.70525472
        66    2        4.48428988       2.11254341       1.58879712
        67    2        2.10534094       9.15196334       7.47293558
        68    2       -0.83453570       4.56692048       9.85081863
        69    2        3.34665836       5.13458486       5.62362340
        70    2        1.10550611       6.62183012       6.58970233
        71    2        4.30289543       6.66845588       1.47862355
        72    2        2.59739662       6.40131707       3.78133144
        73    2        7.97842259       6.91205349       5.55791799
        74    2        2.50557966       4.35956894       2.01609281
        75    2        8.28072548      -0.07861307       5.23902512
        76    2        9.56771998       0.11928841       0.98649890
        77    2        1.02767604       3.91925289       7.48743126
        78    2        4.57336918       2.96052454       5.63238038
        79    2        2.19925608       2.96380434       4.22368023
        80    2        9.26281294       7.29992908       0.75603379
        81    2        6.10098328       1.52803268       4.02589284
        82    2        6.61948212       1.62692665       6.97599401
        83    2        1.22994279       6.55735139       1.44836387
        84    2        7.49159309       4.18026361       4.15821169
        85    2        2.99368452       1.89456830       8.82455983
        86    2        4.30709285       0.52145438       6.36705674
        87    2        6.37967326       4.50629994       6.64656153
        88    2        5.41854412       9.49223287       1.93647038
        89    2        6.56505144       6.69258010       3.03985675
        90    2        6.67091604       9.02993084       6.80695641
        91    2        7.27578386       6.63219771       8.45286531
        92    2       -0.55790175       6.75625060       8.48136910
        93    2        2.39554610       8.79438552       4.87665873
        94    2        3.97335153       4.45275633       8.30127265
        95    2        3.46590712       0.65460340       3.89435091
        96    2        0.03502057       3.22058826       2.25063035
        97    2        4.95132422       9.30944706       8.61773273
        98    2        0.57111951       2.60037900      10.27512733
        99    2        2.17484707       4.68876582       9.90965396
       100    2        5.52929530       9.10927647       4.55072920
