 # Al16 O24
 
          40  atoms
           2  atom types
 
      0.00000000       4.82757300  xlo xhi
      0.00000000       5.09036300  ylo yhi
      0.00000000      14.09522100  zlo zhi
 
Masses
 
           1   26.98153860    # Al
           2   15.99900000    # O 
 
Atoms # atomic
 
         1    1        4.82631783       0.94196658       1.02687914
         2    1        4.81771992       3.80268441       2.51792799
         3    1        4.82631783       1.60321492       8.07448964
         4    1        4.81771992       3.83286009       9.56553849
         5    1        2.42363958       1.25750291       2.51792799
         6    1        2.42363958       1.28767859       9.56553849
         7    1        2.41504167       3.48714808       1.02687914
         8    1        2.41504167       4.14839642       8.07448964
         9    1        2.41253133       0.94196658       6.02073136
        10    1        2.41253133       1.60321492      13.06834186
        11    1        2.40393342       3.80268441       4.52968251
        12    1        2.40393342       3.83286009      11.57729301
        13    1        0.00125517       3.48714808       6.02073136
        14    1        0.00985308       1.25750291       4.52968251
        15    1        0.00985308       1.28767859      11.57729301
        16    1        0.00125517       4.14839642      13.06834186
        17    2        0.69039121       0.60402247       2.86537519
        18    2        0.69039121       1.94115903       9.91298569
        19    2        0.74244211       4.25813955       0.70250581
        20    2        0.74244211       3.37740495       7.75011631
        21    2        0.95587394       4.90350086       5.30840118
        22    2        0.95587394       2.73204364      12.35601168
        23    2        1.45791256       2.35831936       5.30840118
        24    2        1.45791256       0.18686214      12.35601168
        25    2        1.67134439       0.83222345       7.75011631
        26    2        1.67134439       1.71295805       0.70250581
        27    2        1.72339529       3.14920397       2.86537519
        28    2        1.72339529       4.48634053       9.91298569
        29    2        3.10417771       0.60402247       4.18223531
        30    2        3.10417771       1.94115903      11.22984581
        31    2        3.15622861       4.25813955       6.34510469
        32    2        3.15622861       3.37740495      13.39271519
        33    2        3.36966044       2.73204364       8.78681982
        34    2        3.36966044       4.90350086       1.73920932
        35    2        3.87169906       2.35831936       1.73920932
        36    2        3.87169906       0.18686214       8.78681982
        37    2        4.08513089       1.71295805       6.34510469
        38    2        4.08513089       0.83222345      13.39271519
        39    2        4.13718179       4.48634053      11.22984581
        40    2        4.13718179       3.14920397       4.18223531
