 # Al40 O60
 
         100  atoms
           2  atom types
 
      0.00000000      10.23568195  xlo xhi
      0.00000000      10.52481127  ylo yhi
      0.00000000      10.38565153  zlo zhi
      0.09091389       0.42647589       0.62599843  xy xz yz
 
Masses
 
           1   26.98153860    # Al
           2   15.99900000    # O 
 
Atoms # atomic
 
         1    1        8.87754973       5.70890368       6.64422970
         2    1        7.96085062       9.77614422       3.42379318
         3    1        5.20580992       9.05816539       8.48907255
         4    1        0.56821134       8.49350028       1.16693928
         5    1        8.72821336       6.13750597       1.12968325
         6    1        3.63582227      10.47221600       6.67118068
         7    1        1.30505702       6.76184527       5.99350559
         8    1       10.29519331       3.64472453       5.81589673
         9    1        5.36210124       2.71835358       2.69887336
        10    1        7.50954269       3.29581953       0.27096051
        11    1        4.26625100       5.72468150       4.41327429
        12    1        3.06293790       4.57221986       7.34382277
        13    1        7.34790503       3.21680468       7.65365490
        14    1        7.16557842       8.28355813       5.52839904
        15    1        6.47452742       0.27981220       0.58820228
        16    1       10.28497528       9.08014649       5.49060462
        17    1        3.78758682       1.17747671       1.12479441
        18    1        9.69499996       1.13209121       7.95555945
        19    1        5.69981852       5.75387488       9.33158018
        20    1        4.83349841      10.72748394       3.69740774
        21    1        7.58301802      10.28600949       7.99199222
        22    1        2.68078662       6.44382057       9.19628349
        23    1       10.49011439       5.54287582       9.36117763
        24    1        1.80691517       9.96240489       2.93227945
        25    1        3.67850833       7.70990908       1.13333952
        26    1        4.58568377       2.78758118       5.66027553
        27    1        1.47157883       2.83199821      10.25000349
        28    1        5.82198819       5.17546137       2.02991931
        29    1       10.19642173       8.36011898       8.77675354
        30    1        9.98913912       1.24590621       4.55907461
        31    1        9.08877903       0.84467734       1.62454542
        32    1        6.00826057       7.80411001       3.02585521
        33    1        4.05848925       8.09751275       5.60143801
        34    1        4.82222523       2.00357046       8.46373250
        35    1        2.55956685      10.41364018       9.51964179
        36    1        6.70377182       7.78942570       0.13529378
        37    1        3.12603447       4.55879861       1.30992873
        38    1        1.99314031       2.06231566       7.34863081
        39    1        0.20608185       3.82239015       2.58312226
        40    1        9.42707004       6.75554109       3.61514248
        41    2        0.32793188      10.15300892       1.89349360
        42    2        1.75809339       4.54311727       2.36413654
        43    2        7.92384443       1.54475090       7.94683312
        44    2       10.19332189       1.63989378       6.31144154
        45    2        5.22821688       1.86851278       4.30040386
        46    2        8.60992967       3.91989638       6.64600575
        47    2        2.04614323       6.05924250       7.50621822
        48    2        3.89111524       9.76973813       5.00986382
        49    2        6.72906451       3.55041036       1.82751148
        50    2        0.42444809       7.68061209       4.49455251
        51    2        2.27353512       0.83854008       0.10107877
        52    2        1.54944130       3.65568642       6.72092411
        53    2       10.34862198       2.94435355       4.16059233
        54    2        6.97102728       6.43707769       1.55189779
        55    2        3.94282405       9.32814138       9.89109501
        56    2        8.59662914       9.56843788       5.22301519
        57    2        5.49908639       0.92108056       2.05080766
        58    2        8.83299594       4.52495016       0.22924415
        59    2        8.83748657       7.99449402      10.08318417
        60    2        0.66991188       8.26684589       6.94440183
        61    2        3.21693324       0.30920866       2.66710542
        62    2        0.60113638       2.12512724       8.84780719
        63    2        5.42251841       8.46487339       1.39800320
        64    2        9.33281174       9.93728836       8.09507053
        65    2        7.79210328       6.75143809       5.95655874
        66    2        5.44150969       1.80917669      10.09538171
        67    2        9.47075873       6.20178726       8.14456034
        68    2        1.72869040       4.57183137       9.81039745
        69    2        2.22220566       8.47229447       1.96344730
        70    2        3.33162348       2.95170911       8.30230136
        71    2        7.87167531       1.54925748       0.34226984
        72    2        4.01322065       4.48007907       5.77445164
        73    2        4.51578161       6.58793561       2.67613927
        74    2        9.19484736       5.14684328       2.78870280
        75    2        8.66576526       0.92710319       3.42013681
        76    2       10.26942211       2.32840574       1.39807445
        77    2        1.03468876       9.58518508       9.85545529
        78    2        2.92999120       6.83362418       5.09550618
        79    2        5.16202325       4.40419109       3.52013205
        80    2        0.97333906      10.35535138       4.51759536
        81    2        5.47704667       7.29295469       4.87592184
        82    2        4.93813062      10.86291521       7.87620290
        83    2        2.91216449       6.20455551       0.43712833
        84    2        5.73100205       2.82078048       7.08844770
        85    2        3.92551923       8.60212438       7.26881219
        86    2        7.00693418       4.35190762       9.08251159
        87    2        4.18067652       5.53527644       8.50156566
        88    2        7.88570588       9.94547244       1.59943531
        89    2        6.03143694       7.53824577       9.31619103
        90    2        7.82698018       7.82353134       3.59601855
        91    2        2.24817769      10.81774609       7.80102542
        92    2        6.63367443       9.12587451       7.07070662
        93    2       10.28786159       5.46601826       5.51865200
        94    2        4.86514873       4.78247400       0.61239628
        95    2        3.26498384       1.65513636       6.04577803
        96    2        9.81526562       7.32222050       1.92169293
        97    2        6.90729042      10.04408788       9.63274922
        98    2        1.04699156       7.11211078       9.66015955
        99    2        3.75414008       2.85191835       1.72463402
       100    2        6.21087445       9.55464155       3.89555175
