 # Al8 O12
 
          20  atoms
           2  atom types
 
      0.00000000       8.37093200  xlo xhi
      0.00000000       5.37987600  ylo yhi
      0.00000000       4.82754300  zlo zhi
      0.00000000       0.00000000       2.60034800  xy xz yz
 
Masses
 
           1   26.98153860    # Al
           2   15.99900000    # O 
 
Atoms # atomic
 
         1    1        3.82960931       2.18367486       3.53688490
         2    1        0.35585669       0.88350086       1.12311340
         3    1        1.30871151       4.42264937       3.57417767
         4    1        5.49417751       4.85774863       3.66713683
         5    1        2.87675449       3.12247537       1.16040617
         6    1        7.06222049       3.55757463       1.25336533
         7    1        8.01507531       7.09672314       3.70442960
         8    1        4.54132269       5.79654914       1.29065810
         9    2        3.27462489       4.71067833       0.51008302
        10    2        6.65266427       6.00496801       4.34643972
        11    2        0.91084111       6.01085233       2.92385452
        12    2        0.16008570       4.48182356       0.82651398
        13    2        4.34555170       2.19822644       1.58725752
        14    2        5.90373373       4.70479401       1.93266822
        15    2        2.46719827       3.27542999       2.89487478
        16    2        4.02538030       5.78199756       3.24028548
        17    2        8.21084630       3.49840044       4.00102902
        18    2        7.46009089       1.96937167       1.90368848
        19    2        1.71826773       1.97525599       0.48110328
        20    2        5.09630711       3.26954567       4.31745998
