 # Al40 O60
 
         100  atoms
           2  atom types
 
      0.00000000      10.68917297  xlo xhi
      0.00000000      10.55255739  ylo yhi
      0.00000000      10.00772503  zlo zhi
      0.25672039      -0.52651290      -1.12784935  xy xz yz
 
Masses
 
           1   26.98153860    # Al
           2   15.99900000    # O 
 
Atoms # atomic
 
         1    1        3.63433056       5.88291469       3.94916099
         2    1        5.20087221       9.06088667       9.79894437
         3    1        0.25646732       7.74262959       5.27832858
         4    1        0.72831840       5.57596638       8.77824139
         5    1        2.97892399       0.80656793       7.78584905
         6    1        8.96826429       1.07671667       7.30833265
         7    1        0.73128703       1.78778890       5.41716195
         8    1        8.03908596       0.12253311       1.29845739
         9    1        3.78936640       9.21879294       2.33001696
        10    1        1.16913582       4.92456492       5.54878715
        11    1        9.46582001       4.99696210       0.28516602
        12    1        6.68599901       1.42010497       9.65523795
        13    1        7.75332999       1.23936280       4.20173985
        14    1        5.38067630       7.68355897       6.85788555
        15    1       10.44445407       8.49675462       8.32394091
        16    1        9.75886597       2.70303381       2.07749944
        17    1       10.00748224       3.43571942       7.94308632
        18    1        0.40001525       0.23417581       1.93380712
        19    1        4.77918685      -0.58857285       5.43998756
        20    1        3.19290201       0.91636936       0.58352763
        21    1        4.77317859       2.54089459       3.93849085
        22    1        7.57876898       7.65887305       8.76546723
        23    1        6.60169008       6.46419797       3.31392084
        24    1        8.83864689       8.86484404       3.26057606
        25    1        2.66020206       7.63381576       6.40082794
        26    1        2.03894297      -0.29451158       4.66255556
        27    1        8.21232127       9.18578966       6.11861520
        28    1        4.74010146       3.50540929       1.24976760
        29    1        7.37900196       4.02272927       2.56233428
        30    1        6.69690508       4.78172575       7.93015444
        31    1        2.74593800       6.25566289       1.29020162
        32    1        5.92680304       4.96519335       5.33500042
        33    1        4.09488684       6.18365026       9.18833084
        34    1        2.15799044       2.87221452       2.96802374
        35    1        0.03313635       0.40776928       9.14668539
        36    1        0.54865626       5.56078610       2.82094080
        37    1        3.92711474       3.38050357       8.96540046
        38    1       10.37638798       7.84655118       0.96884406
        39    1        7.32364070       7.25962220       0.88775506
        40    1        5.99563863       1.81012533       6.62902249
        41    2        3.98732347       9.90126868       3.98198532
        42    2        3.71791044      -0.44760395       9.03309511
        43    2        9.34076089       8.44529781       4.91742790
        44    2        6.33920462       6.11916349       6.66005044
        45    2       -0.07686541       4.14720996       9.51594633
        46    2       10.03677676       2.32394110       6.47689296
        47    2        3.17336724       1.90646181       4.05655008
        48    2        8.22083884       3.52205457       0.85934563
        49    2       10.32767411       9.08245231       2.28785001
        50    2        6.65755254       5.63590613       1.71883638
        51    2        4.79020300      10.32710671       1.33083778
        52    2        0.56056100       0.56328505       4.04314313
        53    2        7.18610687       1.29088825       7.91990713
        54    2        6.22628619       3.57604090       6.56177078
        55    2        6.51775514       8.95168368       5.70445771
        56    2        4.96766821       4.72483928       8.63683103
        57    2       10.34737671       6.90954923       9.27204456
        58    2        6.85594678       0.91621622       0.28835779
        59    2        8.28771325       3.92226014       8.43755391
        60    2        3.40475250       2.44783255       1.58148996
        61    2        5.85462198       3.03177535       2.52159404
        62    2       10.06630071      -0.33262372       7.58729919
        63    2        3.56038450       7.34362461       2.48636995
        64    2        5.09102444       2.18787765       9.70832803
        65    2        6.09439840       8.48062129       8.32078397
        66    2        4.04706273       8.73037466       6.19448146
        67    2        7.28223325       5.00414842       4.11618811
        68    2        2.31346631       4.92710335       2.83899564
        69    2        1.11971327       3.39244739       4.65277251
        70    2        2.32188253       5.83308218       9.58642533
        71    2        7.73317211      -0.12456973       3.06628038
        72    2        3.89131890       4.95807562       0.66938831
        73    2        0.16541510       6.09111998       4.50265303
        74    2        0.46983741       4.78095839       7.17047844
        75    2        8.72510734       8.26924070       7.58221086
        76    2        2.60771059       6.02708038       5.44782541
        77    2        9.46120074       1.06610224       1.46126976
        78    2        5.22916961       6.60034378       4.39247538
        79    2        1.71113100       0.69579771       9.24634892
        80    2        7.12882976       6.03025391       9.10469578
        81    2        1.02214907       6.80844356       1.65907015
        82    2        0.80272913       2.17705223       2.02915072
        83    2        1.88849938       0.61386344       6.24985200
        84    2        4.61865825       0.70629680       6.69110961
        85    2        8.24719204       0.40421372       5.73679848
        86    2        2.38222655      10.24482980       1.75584135
        87    2        7.50897989       7.83938637       2.74479843
        88    2        8.46542783       2.65768253       3.39298407
        89    2        3.80636672       6.99299178       7.69331202
        90    2        1.74917169       8.56209900       4.89381857
        91    2        0.86510957       7.65581925       7.04706828
        92    2        0.07832245       9.37075202       9.90761015
        93    2       10.14185022       4.45711733       2.03069771
        94    2        5.63922678       8.13327987       0.39135189
        95    2        3.00306210       2.59461885       7.80548771
        96    2        9.66257889       1.80171734       8.92770616
        97    2        9.10304341       6.60218233       1.05278385
        98    2        6.07009512       1.55785863       4.77506711
        99    2        4.50779003       4.25145410       4.44153815
       100    2        8.41092318       9.10713312       0.48860166
