 # Al40 O60
 
         100  atoms
           2  atom types
 
      0.00000000      10.40875592  xlo xhi
      0.00000000      10.31368755  ylo yhi
      0.00000000      10.46298101  zlo zhi
     -0.17466791      -0.19525532      -0.61857843  xy xz yz
 
Masses
 
           1   26.98153860    # Al
           2   15.99900000    # O 
 
Atoms # atomic
 
         1    1        2.51211978       4.35334681       2.97579076
         2    1        2.28082758       0.11797156       4.22017308
         3    1        4.87475416       7.06774926       6.67608688
         4    1        5.36807277       8.35930142       9.58650765
         5    1        2.39089502       8.88483138       6.31642829
         6    1        0.49133410       2.45903876       8.50002794
         7    1        6.37399329       0.95830348       7.96464672
         8    1        2.11012982       9.13217430       9.74936343
         9    1        4.55574186       5.60101808       8.96992324
        10    1        7.65624345       6.01368755       5.34740432
        11    1        4.92271071       9.27399699       4.47634975
        12    1        7.78047105       3.19616425       3.13538617
        13    1        8.26580154       8.64816444       4.15172603
        14    1        3.40886992       7.10002080       2.46505499
        15    1        1.34607466       6.48021639       4.98018728
        16    1        2.21579889       1.51078607       1.54318915
        17    1        8.22269131       3.94632330       0.56876545
        18    1        6.71140607       3.72822655       5.96237597
        19    1        7.03514543       0.73944650       5.29579588
        20    1        4.97652433       2.31124476       4.11350665
        21    1        9.97134338       0.51155435       3.47473852
        22    1       10.03495811       0.82439025       0.15340425
        23    1        7.16598272       9.30913668       1.47934969
        24    1        4.03117407       9.88561949       1.50017102
        25    1        0.97867517       3.12596885       5.88802865
        26    1        0.26271087       2.83697897       2.73570689
        27    1        9.34460849       0.26391918       6.73174272
        28    1        5.07532647       4.43618952       1.43937953
        29    1        4.79404104       5.33553887       4.35413878
        30    1        6.50764094       6.76623427       1.52053836
        31    1        2.48920940       4.70936347       0.02220830
        32    1        7.44894252       5.32880673       8.55884988
        33    1        1.97024514       5.83621040       7.65145716
        34    1        9.50991005       5.83676340       2.24020836
        35    1        2.97146359       1.00927306       7.47909493
        36    1        9.94457286       5.47984523       9.71570371
        37    1        5.01057548       2.85257754       9.11843197
        38    1        0.56220141       7.97508054       2.19543883
        39    1        7.17096843       1.22457842       0.14532756
        40    1        9.94748364       7.94819515       8.62823189
        41    2        9.76369764       9.10348306       2.95748285
        42    2        3.13952212       0.70355686       0.35022360
        43    2        7.58676760       0.02634810       7.02109729
        44    2        5.86311515       6.42085217       5.34017263
        45    2        4.05912054       3.65941149       0.03082133
        46    2        2.63965100       0.35710457       5.91179667
        47    2        1.99525235       2.53219195       7.41477836
        48    2        7.63002504       5.03005206       6.82547282
        49    2        8.33077377      10.19800740       0.55453015
        50    2        5.56507728       7.08844253       8.34194328
        51    2        4.56236636       1.57082045       7.95524458
        52    2        0.97422813       1.28576337       4.20155232
        53    2        9.94150609       9.21086666       7.43413854
        54    2        5.05360053       3.79702658       5.24561595
        55    2        6.01463060       0.27669753       1.40103438
        56    2        7.42794522       8.01403799       2.64234738
        57    2        6.65067566       9.37534320       4.60360157
        58    2        7.90573652       5.71835378       1.51661558
        59    2        0.65171936       6.50709793       8.71942640
        60    2        4.18826916       3.54464863       2.94703901
        61    2        8.49325235       4.26988929       9.56934261
        62    2        2.51218885       9.59619480       8.08021422
        63    2        2.85187421       5.22854806       9.24953166
        64    2        8.73067477       2.22726077       0.33338489
        65    2        1.85847027       8.69451015       4.50088858
        66    2        1.69416670       7.28471535       6.52986107
        67    2        4.21091441       8.51601675       5.95731723
        68    2        1.80640588       3.23420621       1.68350819
        69    2        0.67468547       3.90201919       9.62819290
        70    2        3.75364815       5.84258906       7.14985055
        71    2        6.72545425       2.03694074       3.95494687
        72    2        5.75067253       4.35718353       8.42310201
        73    2        3.02368409       5.93452645       4.09127951
        74    2        0.49036247       1.08442904       9.50177551
        75    2        6.46085967       8.15577855       0.37694919
        76    2        2.22074170       8.26539170       1.80642185
        77    2        5.43804430       5.85541444       0.27698597
        78    2        1.10710957       4.90381853       6.28302951
        79    2        0.48131801       1.07182710       1.76211834
        80    2        2.82558642       5.53704243       1.60931425
        81    2        3.72081238       8.25775410      10.27918274
        82    2        9.14336249       2.07788569       3.30685580
        83    2       -0.09133334       6.76966011       0.95386164
        84    2        6.49847065       2.02088044       9.51740061
        85    2        0.35391521       6.49486839       3.42004046
        86    2        4.46897477       8.59845043       2.85556693
        87    2        7.61639430       4.46691260       4.41852671
        88    2        4.93931052       0.70371573       4.87271331
        89    2        9.54635766       4.08719925       2.05096881
        90    2        8.73149233       7.28212622       5.10041226
        91    2        1.22218167       3.71317892       4.08948511
        92    2        8.60707076       6.69371400       8.92692771
        93    2        5.22803477       5.95047375       2.69740578
        94    2        8.99490847       0.05445478       4.94157072
        95    2        6.71406801       3.50149441       1.63871753
        96    2        0.31667680       8.85518155      10.06508744
        97    2       10.02841039       2.08786668       6.86603006
        98    2        6.79659676       2.14004204       6.57027088
        99    2        3.24794107       0.69236800       2.80529220
       100    2        6.20057796      -0.39336463       9.19666232
