 # Al40 O60
 
         100  atoms
           2  atom types
 
      0.00000000      10.65453612  xlo xhi
      0.00000000       9.88396685  ylo yhi
      0.00000000      10.49357460  zlo zhi
      0.12552977      -0.25999663       0.65939715  xy xz yz
 
Masses
 
           1   26.98153860    # Al
           2   15.99900000    # O 
 
Atoms # atomic
 
         1    1        3.32565064       3.84760929       2.42032420
         2    1        2.29101836       0.33225177       4.06512160
         3    1        5.67181498       8.81786557       7.50081877
         4    1        6.05059086       7.56567653      10.38197061
         5    1        2.25187232       8.48205157       6.61207429
         6    1        1.13906462       3.61270012       7.55851255
         7    1        9.60085113       2.20493833       8.43847129
         8    1        3.34492031       9.08679009       9.76856377
         9    1        2.86475333       5.96034165       7.97187292
        10    1        9.02643801       7.11141122       5.71837641
        11    1        7.59189932      10.09299173       4.57221625
        12    1        6.53016799       2.92536499       3.10925980
        13    1       10.09237119       8.19306491       3.62015427
        14    1        4.52199220       7.77264937       4.70035455
        15    1        3.06472730       5.27381399       5.35374799
        16    1        2.71063769       1.36077299       1.05993246
        17    1        7.65178478       4.67304980       1.05431693
        18    1        6.49310994       3.40632781       7.34727637
        19    1        7.58929052       0.67497336       7.52787677
        20    1        4.93712686       2.42001891       5.03998591
        21    1        9.63696006       2.37564475       3.52346259
        22    1       10.30692677       1.19216804       0.38607781
        23    1        7.26069739      10.08348660      10.45588052
        24    1        4.83487424       9.31858460       1.64055202
        25    1        1.29510299       3.33468077       4.56149570
        26    1        9.12927796       5.00971273       3.38222527
        27    1       10.38243090       0.64637743       5.82907922
        28    1        4.53022348       4.32603886       0.13261213
        29    1        5.83071907       5.67198928       5.93974834
        30    1        7.06646447       7.29806441       3.41474475
        31    1        2.39934651       6.14370461       0.25793479
        32    1        7.66594533       6.33519712       8.38274107
        33    1        0.03697851       6.68075977       8.61443112
        34    1        9.41528469       6.73733835       0.58605974
        35    1        3.06019124       1.19729071       6.88677991
        36    1        0.21793418       3.75354132       0.82761815
        37    1        4.02404393       3.43755536       8.12667508
        38    1        1.16970796       8.72288042       1.66621164
        39    1        5.89122553       1.99106221       0.29111904
        40    1       10.53426925       9.36747014       8.60233360
        41    2        8.45995869       1.28411003      10.27082854
        42    2        3.61751483       0.19149876       0.00926079
        43    2        9.43168480      10.15071910       7.40584720
        44    2        5.26857222       7.58035743       6.30602887
        45    2        3.33050867       4.71488969       9.21233590
        46    2        3.30294943       1.60387384       5.08596508
        47    2        2.50473508       2.48637649       8.04001536
        48    2        6.82300026       5.15176431       7.46154783
        49    2        9.93855362       2.31275316       1.76559283
        50    2        6.36511383       7.54070312       8.62823636
        51    2        4.83705658       2.15660127       6.94887763
        52    2       10.40567946       3.90780979       4.04517216
        53    2        1.55487683      10.16726993       6.48993264
        54    2        6.09222017       3.78344603       5.57612982
        55    2        6.16833955       0.37758388       0.99589259
        56    2        8.17471309       8.72598352       3.52290234
        57    2        6.91190246       9.69221982       6.22256749
        58    2        7.52358564       5.84717857       2.50348620
        59    2        0.99452917       8.13891236       7.94436118
        60    2        1.90263289       4.03375593       6.03469567
        61    2        8.18779078       6.03442310      10.04298302
        62    2        3.77475597       9.44480933       7.81377683
        63    2        3.11253386       7.24307695       9.25745670
        64    2       10.20092220       3.40489862       9.78868268
        65    2        1.12618816       8.92884423       3.42621150
        66    2        2.51248585       6.73764401       6.34446032
        67    2        3.19225574       8.85525632       5.02151649
        68    2        0.81679429       1.59107852       4.29260709
        69    2        0.55414219       6.06223268      10.47176759
        70    2        1.07558994       5.32974952       8.07041367
        71    2        4.32111864       2.66289477       0.86697368
        72    2        4.14486280       4.92568564       6.93527701
        73    2        4.53915514       5.99275800       4.55947149
        74    2        1.91334042       3.01899708       1.50356250
        75    2        7.75162700       7.75795005       0.56705252
        76    2        2.28147948       7.86605676       0.61601344
        77    2        6.02404025       5.22656324       0.30599274
        78    2        9.75945685       6.47966552       4.19880303
        79    2        1.09253188       0.50471633       1.17502379
        80    2        3.49565926       5.23041720       1.27817909
        81    2        5.01084707       7.96656302       0.37609947
        82    2        8.99154721       1.14801622       4.69555962
        83    2        9.78975502       8.06708617       9.54627712
        84    2        5.58514297       3.25774275       9.09965852
        85    2       10.26315057       7.82212478       1.78252799
        86    2        5.48046656       8.23865099       3.19399950
        87    2        4.79293586       3.32148428       3.36014196
        88    2        6.25102870       1.41019361       4.07791527
        89    2        9.59600956       4.96147589       1.59656002
        90    2        7.33107452       6.62135759       5.12389096
        91    2        2.43767598       4.48815368       3.78355339
        92    2        9.18515273       6.60826965       7.43327667
        93    2        8.12165208       3.49584225       3.54024874
        94    2       10.00837854       8.63950038       5.42051672
        95    2        6.94081892       3.02770811       1.32077125
        96    2        0.10422523       1.02154087       9.29926813
        97    2       10.49061505       2.60622373       6.96775463
        98    2        7.88944706       2.40190156       7.71168915
        99    2        3.38057724       0.39294624       2.53605080
       100    2        6.57915114      10.01419672       8.75846750
