 # Fe4 Co2 O8
 
          14  atoms
           3  atom types
 
      0.00000000       5.93291387  xlo xhi
      0.00000000       5.93258582  ylo yhi
      0.00000000       4.17304594  zlo zhi
