 # Fe12 Co6 O24
 
          42  atoms
           3  atom types
 
      0.00000000       5.97724804  xlo xhi
      0.00000000       5.19020696  ylo yhi
      0.00000000      14.64471200  zlo zhi
      2.96466623       0.00034422       0.00019980  xy xz yz
 
Masses
 
           1   55.84500000    # Fe
           2   58.93319500    # Co
           3   15.99900000    # O 
 
Atoms # atomic
 
         1    1        6.45286753       2.62017943      11.56446044
         2    1        3.47920759       2.60267455       9.78606519
         3    1        3.47093130       0.84663467       6.68123980
         4    1        1.99046885       0.00639263       9.76648521
         5    1        4.95662686       3.46022156       4.85864681
         6    1        3.48376929       4.31691690       1.79951292
         7    1        7.94945129       3.46519923       4.87822679
         8    1        6.48554900       2.59642663       7.96347220
         9    1        6.46506731       4.32632022      14.63615949
        10    1        3.46651584       0.88679407       3.08025157
        11    1        1.97897643       1.72243258       0.00855251
        12    1        3.46584106       4.30651072      12.84519908
        13    2        3.50101462       0.86786041      12.22594744
        14    2        3.45953139       4.33802816       7.32235600
        15    2        6.46524924       0.87161648       4.87815357
        16    2        4.97869936       0.00876975       9.76655844
        17    2        6.45219704       2.58083227       2.41876457
        18    2        4.97683289       1.72355874       0.00000000
        19    3        4.91321812       1.72155405      10.93968774
        20    3        6.38196362       4.42750436      10.90883133
        21    3        3.42111202       0.87974386       8.64676518
        22    3        2.04665162       1.65676407      10.89373263
        23    3        4.89759598       3.54226291       8.64445131
        24    3        4.89735822       5.12538605       6.05675999
        25    3        3.53454374       4.30431469      10.90149433
        26    3        0.56695060       0.78349114       8.62248424
        27    3        3.43724769       2.69462451       6.00026069
        28    3        3.45160019       4.25617129       3.74321768
        29    3        2.06269676       3.48004712       8.58795201
        30    3        7.98072897       5.08671335       6.02222776
        31    3        1.93233425       1.84478028       3.73588068
        32    3        7.90367572       3.42509529       1.13172870
        33    3        6.48852272       4.23498497       3.75097938
        34    3        6.48150934       2.65610796       5.99794683
        35    3        0.53959650       0.92075354       1.17384689
        36    3        6.45825665       2.58800624      13.53235826
        37    3        5.01047023       1.77800265       3.70502427
        38    3        5.06090395       3.46121960       1.16583623
        39    3        7.87510771       5.17854669      13.47086511
        40    3        3.49177975       0.86615691       1.11235375
        41    3        3.42662038       2.51262294      13.47887577
        42    3        2.04799650       0.02624958      13.51298331
