 # Fe24 Co12 O48
 
          84  atoms
           3  atom types
 
      0.00000000       6.02870076  xlo xhi
      0.00000000       5.23630825  ylo yhi
      0.00000000      29.52181267  zlo zhi
