 # Fe4 Co2 O8
 
          14  atoms
           3  atom types
 
      0.00000000       5.96010801  xlo xhi
      0.00000000       5.96007454  ylo yhi
      0.00000000       4.22147563  zlo zhi
