 # Mn4 H32 Cl8 O16
 
          60  atoms
           4  atom types
 
      0.00000000      10.16539500  xlo xhi
      0.00000000       7.09456700  ylo yhi
      0.00000000      10.67967700  zlo zhi
