 # Cu6 Bi2 Se4 Cl2 O16
 
          30  atoms
           5  atom types
 
      0.00000000       6.42135600  xlo xhi
      0.00000000       7.32125000  ylo yhi
      0.00000000       9.75914600  zlo zhi
 
Masses
 
           1   63.54600000    # Cu
           2   208.98040000    # Bi
           3   78.96000000    # Se
           4   35.45000000    # Cl
           5   15.99900000    # O 
 
Atoms # atomic
 
         1    1        4.81601700       0.00000000       7.31935950
         2    1        1.60533900       0.00000000       7.31935950
         3    1        1.60533900       0.00000000       2.43978650
         4    1        4.81601700       0.00000000       2.43978650
         5    1        3.21067800       5.80946312       4.87957300
         6    1        0.00000000       1.51178688       0.00000000
         7    2        3.21067800       1.81281471       4.87957300
         8    2        0.00000000       5.50843529       0.00000000
         9    3        3.21067800       4.45820198       1.88166094
        10    3        0.00000000       2.86304803       2.99791206
        11    3        3.21067800       4.45820198       7.87748506
        12    3        0.00000000       2.86304803       6.76123394
        13    4        3.21067800       1.10665819       0.00000000
        14    4        0.00000000       6.21459181       4.87957300
        15    5        3.21067800       7.25713049       6.21030087
        16    5        0.00000000       0.06411951       8.42841813
        17    5        3.21067800       7.25713049       3.54884513
        18    5        0.00000000       0.06411951       1.33072787
        19    5        4.56799212       5.52506917       1.61919847
        20    5        1.35731412       1.79618083       3.26037453
        21    5        1.85336388       5.52506917       8.13994753
        22    5        5.06404188       1.79618083       6.49877147
        23    5        5.06404188       1.79618083       3.26037453
        24    5        1.85336388       5.52506917       1.61919847
        25    5        1.35731412       1.79618083       6.49877147
        26    5        4.56799212       5.52506917       8.13994753
        27    5        3.21067800       4.30223007       6.16841462
        28    5        0.00000000       3.01901994       8.47030438
        29    5        3.21067800       4.30223007       3.59073138
        30    5        0.00000000       3.01901994       1.28884162
