 # Sr6 Ti6 O18
 
          30  atoms
           3  atom types
 
      0.00000000       5.62885438  xlo xhi
      0.00000000       4.87473067  ylo yhi
      0.00000000      13.88603800  zlo zhi
