 # Gd4 Fe4 O12
 
          20  atoms
           3  atom types
 
      0.00000000       5.39494200  xlo xhi
      0.00000000       5.66608500  ylo yhi
      0.00000000       7.77632100  zlo zhi
 
Masses
 
           1   157.25000000    # Gd
           2   55.84500000    # Fe
           3   15.99900000    # O 
 
Atoms # atomic
 
         1    1        5.30552623       0.37282273       1.94408025
         2    1        2.60805523       2.46021977       5.83224075
         3    1        2.78688677       3.20586523       1.94408025
         4    1        0.08941577       5.29326227       5.83224075
         5    2        0.00000000       2.83304250       0.00000000
         6    2        2.69747100       0.00000000       3.88816050
         7    2        2.69747100       0.00000000       0.00000000
         8    2        0.00000000       2.83304250       3.88816050
         9    3        1.65401369       3.94026917       4.32235916
        10    3        2.11876097       5.46803833       1.94408025
        11    3        1.04345731       1.10722667       7.34212234
        12    3        3.74092831       1.72581583       0.43419866
        13    3        3.74092831       1.72581583       3.45396184
        14    3        4.35148469       4.55885833       3.45396184
        15    3        1.65401369       3.94026917       7.34212234
        16    3        1.04345731       1.10722667       4.32235916
        17    3        4.81623197       3.03108917       5.83224075
        18    3        3.27618103       0.19804667       5.83224075
        19    3        4.35148469       4.55885833       0.43419866
        20    3        0.57871003       2.63499583       1.94408025
