 # Co2 C2 O6
 
          10  atoms
           3  atom types
 
      0.00000000       4.70955201  xlo xhi
      0.00000000       5.72108635  ylo yhi
      0.00000000       3.58841695  zlo zhi
     -0.00052575      -2.35445045      -1.93882678  xy xz yz
 
Masses
 
           1   58.93319500    # Co
           2   12.01100000    # C 
           3   15.99900000    # O 
 
Atoms # atomic
 
         1    1        0.00000000       0.00000000       0.00000000
         2    1        2.35451313       2.86054317       0.00000000
         3    2        2.35483326       0.46066289       1.79408288
         4    2       -0.00025745       3.32159668       1.79433407
         5    3        1.05662875       0.46079311       1.79402188
         6    3        1.29794706       3.32146646       1.79439507
         7    3        3.00391289       0.99504086       0.80499316
         8    3       -1.70562920      -0.07371178       2.78323001
         9    3       -0.64933708       2.78721871       2.78342379
        10    3        4.06020501       3.85597135       0.80518694
