 # Co2 C2 O6
 
          10  atoms
           3  atom types
 
      0.00000000       6.74359112  xlo xhi
      0.00000000       6.73163511  ylo yhi
      0.00000000       5.26804200  zlo zhi
      0.40138509       1.62531756       1.53129198  xy xz yz
 
Masses
 
           1   58.93319500    # Co
           2   12.01100000    # C 
           3   15.99900000    # O 
 
Atoms # atomic
 
         1    1        0.81265878       0.76564599       2.63402100
         2    1        0.00000000       0.00000000       0.00000000
         3    2        3.49439345       4.26280957       1.31701050
         4    2        5.27590031       4.00011752       3.95103150
         5    3        5.79439485       4.51903090       3.03339127
         6    3        1.51720438       6.36140355       1.31701050
         7    3        4.72704564       3.51342847       4.86867174
         8    3        2.97589892       3.74389619       2.23465074
         9    3        7.25308939       1.90152354       3.95103150
        10    3        4.04324813       4.74949862       0.39937026
