 # Eu2 Cu1 O4
 
           7  atoms
           3  atom types
 
      0.00000000       6.69629925  xlo xhi
      0.00000000       5.04467816  ylo yhi
      0.00000000       2.77061691  zlo zhi
