 # Gd4 Cu2 O8
 
          14  atoms
           3  atom types
 
      0.00000000       5.51943700  xlo xhi
      0.00000000       5.52385400  ylo yhi
      0.00000000       6.01093100  zlo zhi
      0.00000000       0.00000000       2.62080300  xy xz yz
 
Masses
 
           1   157.25000000    # Gd
           2   63.54600000    # Cu
           3   15.99900000    # O 
 
Atoms # atomic
 
         1    1        2.77593461       2.69234015       4.19032219
         2    1        5.50322089       5.45426715       4.19032219
         3    1        0.01621611       2.69038985       1.82060881
         4    1        2.74350239       5.45231685       1.82060881
         5    2        0.00000000       0.00000000       0.00000000
         6    2        2.75971850       2.76192700       0.00000000
         7    3        1.37432325       1.33956454       3.02194146
         8    3        1.50410178       1.25431127       0.03028908
         9    3        4.26382028       4.12841873       5.98064192
        10    3        4.13404175       4.04316546       2.98898954
        11    3        1.38539525       4.10149154       3.02194146
        12    3        1.25561672       4.01623827       0.03028908
        13    3        4.01533522       6.89034573       5.98064192
        14    3        4.14511375       6.80509246       2.98898954
