 # Gd4 Cu2 O8
 
          14  atoms
           3  atom types
 
      0.00000000       5.52873428  xlo xhi
      0.00000000       5.52852497  ylo yhi
      0.00000000       5.98686400  zlo zhi
      0.00038042       2.76408031      -0.00000392  xy xz yz
 
Masses
 
           1   157.25000000    # Gd
           2   63.54600000    # Cu
           3   15.99900000    # O 
 
Atoms # atomic
 
         1    1        2.76438195       2.76425975       4.18021404
         2    1        2.76427792      -0.00000118       1.80460245
         3    1        5.52883250       2.76426130       1.80454857
         4    1        5.52854215      -0.00000274       4.18321944
         5    2        2.76454352       2.76427354       0.00024546
         6    2        5.52871492       0.00000553       0.00022151
         7    3        6.91073683       1.38202424       2.99368345
         8    3        4.14684741       4.14646916       2.99365950
         9    3        4.14666274       1.38207400       2.99310871
        10    3        1.38219556       4.14646917       2.99312667
        11    3        1.38199345       4.14707373       0.00021553
        12    3        4.14709635       1.38144018       0.00018559
        13    3        1.38183908       1.38143465       0.00022151
        14    3        4.14725072       4.14709032       0.00019158
