 # Ca2 F4
 
           6  atoms
           2  atom types
 
      0.00000000       3.53250200  xlo xhi
      0.00000000       4.16743900  ylo yhi
      0.00000000       5.97777800  zlo zhi
 
Masses
 
           1   40.07800000    # Ca
           2   18.99840320    # F 
 
Atoms # atomic
 
         1    1        0.00000000       0.60414113       4.19586813
         2    1        0.00000000       3.56329787       1.20697913
         3    2        1.76625100       0.37354839       5.85870664
         4    2        0.00000000       2.63873903       5.08713690
         5    2        0.00000000       1.52869997       2.09824790
         6    2        1.76625100       3.79389061       2.86981764
