 # Cu6 H4 C4 O16
 
          30  atoms
           4  atom types
 
      0.00000000       5.90695000  xlo xhi
      0.00000000       5.08278400  ylo yhi
      0.00000000      10.52041900  zlo zhi
      0.00000000       0.00000000       0.37989400  xy xz yz
 
Masses
 
           1   63.54600000    # Cu
           2   1.00800000    # H 
           3   12.01100000    # C 
           4   15.99900000    # O 
 
Atoms # atomic
 
         1    1        2.95328007       5.35593983       7.88769466
         2    1        5.90675507       0.10673817       2.63272433
         3    1        0.01161306       1.54347320       7.00282222
         4    1        2.96508806       3.91920480       3.51759678
         5    1        5.89902878       4.12092210       8.77396632
         6    1        2.94555378       1.34175590       1.74645268
         7    2        4.11883354       1.04299556       4.00070494
         8    2        1.16535854       4.41968244       6.51971406
         9    2        1.75801465       4.19359550       1.29972412
        10    2        4.71148965       1.26908250       9.22069487
        11    3        1.17081656       1.84836464       4.54225402
        12    3        4.12429156       3.61431336       5.97816497
        13    3        4.74059319       3.42921545       0.72415200
        14    3        1.78711819       2.03346255       9.79626700
        15    4        0.58172234       0.70467848       4.38900308
        16    4        3.53519734       4.75799952       6.13141592
        17    4        5.34302530       4.56985743       0.87516210
        18    4        2.38955030       0.89282057       9.64525690
        19    4        4.05219723       0.46253567       3.20554011
        20    4        1.09872223       5.00014233       7.31487889
        21    4        1.85089553       4.77495829       2.09033361
        22    4        4.80437053       0.68771971       8.43008539
        23    4        1.72837948       2.41925713       3.52216264
        24    4        4.68185448       3.04342087       6.99825636
        25    4        4.19336743       2.84805997       1.74393830
        26    4        1.23989243       2.61461803       8.77648070
        27    4        1.19237102       2.39756463       5.70871600
        28    4        4.14584602       3.06511337       4.81170300
        29    4        4.70797501       3.26976363      10.07159688
        30    4        1.75450001       2.19291437       0.44882212
