 # Cu6 H4 C4 O16
 
          30  atoms
           4  atom types
 
      0.00000000       6.03063500  xlo xhi
      0.00000000       5.07003700  ylo yhi
      0.00000000      10.48803700  zlo zhi
      0.00000000       0.00000000       0.50251100  xy xz yz
 
Masses
 
           1   63.54600000    # Cu
           2   1.00800000    # H 
           3   12.01100000    # C 
           4   15.99900000    # O 
 
Atoms # atomic
 
         1    1        3.01241073       1.73252553       9.60928633
         2    1        6.02772823       4.09127797       6.12276917
         3    1        3.01822427       3.84002247       0.87875067
         4    1        0.00290677       1.48127003       4.36526783
         5    1        3.01531750       0.25125550       5.24401850
         6    1        0.00000000       0.00000000       0.00000000
         7    2        1.80601839       4.60077941       9.17822801
         8    2        4.82133589       1.22302409       6.55382749
         9    2        4.22461661       0.97176859       1.30980899
        10    2        1.20929911       4.34952391       3.93420951
        11    3        4.86165068       3.79136847       8.59073013
        12    3        1.84633318       2.03243503       7.14132537
        13    3        4.18430182       3.54011297       3.34671163
        14    3        1.16898432       1.78117953       1.89730687
        15    4        1.82511741       2.58500622       8.30591700
        16    4        4.84043491       3.23879728       7.42613850
        17    4        1.15462538       4.94741626       4.71743514
        18    4        4.16994288       0.37387624       0.52658336
        19    4        4.87600962       0.62513174       5.77060186
        20    4        1.86069212       5.19867176       9.96145364
        21    4        3.53694330       4.65827380       3.49781278
        22    4        0.52162580       0.66301870       1.74620572
        23    4        2.49369170       0.91427420       6.99022422
        24    4        5.50900920       4.90952930       8.74183128
        25    4        4.79074247       3.00335423       4.35750669
        26    4        1.77542497       2.31793827       0.88651182
        27    4        1.23989253       2.56919377       6.13053032
        28    4        4.25521003       3.25460973       9.60152519
        29    4        4.20551759       2.98754178       2.18212000
        30    4        1.19020009       2.33375072       3.06189850
