 # Cu8 Se4 O16
 
          28  atoms
           3  atom types
 
      0.00000000       6.02848700  xlo xhi
      0.00000000       7.12105600  ylo yhi
      0.00000000       8.53349300  zlo zhi
