 # Sr1 Cu1 O2
 
           4  atoms
           3  atom types
 
      0.00000000       3.94781300  xlo xhi
      0.00000000       3.94781300  ylo yhi
      0.00000000       3.48496800  zlo zhi
 
Masses
 
           1   87.62000000    # Sr
           2   63.54600000    # Cu
           3   15.99900000    # O 
 
Atoms # atomic
 
         1    1        1.97390650       1.97390650       1.74248400
         2    2        0.00000000       0.00000000       0.00000000
         3    3        0.00000000       1.97390650       0.00000000
         4    3        1.97390650       0.00000000       0.00000000
