 # Sr1 Cu1 O2
 
           4  atoms
           3  atom types
 
      0.00000000       3.30217600  xlo xhi
      0.00000000       3.72430100  ylo yhi
      0.00000000       6.41760700  zlo zhi
 
Masses
 
           1   87.62000000    # Sr
           2   63.54600000    # Cu
           3   15.99900000    # O 
 
Atoms # atomic
 
         1    1        1.65108800       0.00000000       3.20880350
         2    2        1.65108800       1.86215050       0.00000000
         3    3        1.65108800       1.86215050       1.74503077
         4    3        1.65108800       1.86215050       4.67257623
