 # Pr2 Cu1 O4
 
           7  atoms
           3  atom types
 
      0.00000000       7.06776754  xlo xhi
      0.00000000       4.95749307  ylo yhi
      0.00000000       2.67855584  zlo zhi
