 # Pr2 Cu1 O4
 
           7  atoms
           3  atom types
 
      0.00000000       6.85109716  xlo xhi
      0.00000000       5.14790761  ylo yhi
      0.00000000       2.82541061  zlo zhi
