 # La16 Cu14 O38
 
          68  atoms
           3  atom types
 
      0.00000000       3.78543015  xlo xhi
      0.00000000       6.98099618  ylo yhi
      0.00000000      34.25491018  zlo zhi
