 # Na8 V16 O40
 
          64  atoms
           3  atom types
 
      0.00000000      15.30721202  xlo xhi
      0.00000000       8.41707600  ylo yhi
      0.00000000       6.56646060  zlo zhi
