 # Na2 V4 O10
 
          16  atoms
           3  atom types
 
      0.00000000       3.65155127  xlo xhi
      0.00000000       5.10106799  ylo yhi
      0.00000000      11.46721949  zlo zhi
     -0.00046879       0.00070705      -0.00129951  xy xz yz
 
Masses
 
           1   22.98976928    # Na
           2   50.94150000    # V 
           3   15.99900000    # O 
 
Atoms # atomic
 
         1    1       -0.00039086       4.42127957       0.13237758
         2    1        1.82550449       0.68920839       5.86939309
         3    2        1.82612264       1.99550979       1.73258219
         4    2        0.00027701       3.04774576       4.00202520
         5    2        1.82562758       2.06323760       9.73668993
         6    2        3.65169244       3.11485559       7.46646715
         7    3        1.82625925       2.73247416      11.38501100
         8    3        3.65159343       2.37799787       5.65042654
         9    3        3.65153485       2.59900377       9.41279832
        10    3        0.00029434       2.65825626       2.04403187
        11    3        1.82590190       2.45358404       7.77893742
        12    3        1.82600167       2.51103788       3.67819092
        13    3        1.82526755       0.43797814       9.94393699
        14    3        1.82668489       0.35609610       1.47883556
        15    3        0.00032184       4.75445414       7.21428006
        16    3        0.00006027       4.67266210       4.21178358
