 # Na2 V4 O10
 
          16  atoms
           3  atom types
 
      0.00000000       3.72668700  xlo xhi
      0.00000000       5.06163100  ylo yhi
      0.00000000      11.71972800  zlo zhi
 
Masses
 
           1   22.98976928    # Na
           2   50.94150000    # V 
           3   15.99900000    # O 
 
Atoms # atomic
 
         1    1        1.86334350       2.05105893       6.13802002
         2    1        0.00000000       3.01057207       0.27815602
         3    2        1.86334350       0.53620894       1.82980113
         4    2        0.00000000       4.52542206       7.68966513
         5    2        1.86334350       4.54787039      10.01851572
         6    2        0.00000000       0.51376061       4.15865172
         7    3        0.00000000       2.15596629       4.36111002
         8    3        1.86334350       2.90566471      10.22097402
         9    3        0.00000000       0.14134098       2.17666992
        10    3        1.86334350       4.92029002       8.03653392
        11    3        0.00000000       0.09915735       6.05503263
        12    3        1.86334350       4.96247365       0.19516863
        13    3        1.86334350       2.17730613       1.64655147
        14    3        0.00000000       2.88432487       7.50641547
        15    3        1.86334350       0.05102124       3.77682298
        16    3        0.00000000       5.01060976       9.63668698
