 # Cu8 Bi4 P4 O24
 
          40  atoms
           4  atom types
 
      0.00000000       5.17404900  xlo xhi
      0.00000000       7.88532369  ylo yhi
      0.00000000      12.03175089  zlo zhi
     -0.00000605      -0.00000965      -0.00996707  xy xz yz
 
Masses
 
           1   63.54600000    # Cu
           2   208.98040000    # Bi
           3   30.97376200    # P 
           4   15.99900000    # O 
 
Atoms # atomic
 
         1    1        1.29347844       5.38013722      11.19813103
         2    1        3.88051581       6.39782953       7.08052899
         3    1        3.88054567       1.44064618       6.84696864
         4    1        3.88052656       5.42434699       1.06455729
         5    1        1.29350157       2.45063857      10.96773503
         6    1        1.29350197       1.47807957       4.95060829
         7    1        1.29352385       6.43526235       5.18486648
         8    1        3.88053417       2.49519682       0.83232043
         9    2        3.88052981       4.15560170       4.67771614
        10    2        1.29350349       3.71994405       7.35417913
        11    2        3.88052747       7.65924801      10.69374800
        12    2        1.29350584       0.21559619       1.33785851
        13    3        1.29350012       0.28774249       8.38706885
        14    3        3.88053318       7.58766947       3.64450157
        15    3        1.29350755       3.64771792       2.37171077
        16    3        3.88053093       4.22788297       9.66024466
        17    4        3.88052227       3.30185230       8.44414747
        18    4        5.17398575       3.98737485      10.52387171
        19    4        1.29350834       2.16373747       2.80242339
        20    4        0.00018699       7.82790588       4.50812861
        21    4        3.88052949       6.10504236       3.21254968
        22    4        5.16193669       6.48948751       0.07595644
        23    4        2.58710827       3.88783980       1.50791528
        24    4        2.58706991       3.98737485      10.52387171
        25    4        0.01134515       2.54188903       5.94002729
        26    4        3.88052496       5.71179268       9.22926735
        27    4        1.29350381       1.77015666       8.81906886
        28    4        5.17395685       3.88783979       1.50792731
        29    4        3.88053432       0.63122628       2.42941504
        30    4        2.57566075       2.54188903       5.94002729
        31    4        2.58742200       0.04753744       7.52365837
        32    4        2.57541880       1.38553770      11.95607118
        33    4        2.59912674       6.48949538       0.07596848
        34    4        2.59860539       5.33360934       6.09195221
        35    4        1.29349899       7.24398822       9.60255242
        36    4        0.01158439       1.38554558      11.95608321
        37    4        1.29350586       4.57339388       3.58765154
        38    4        5.17364452       0.04753744       7.52365837
        39    4        5.16245015       5.33361722       6.09195221
        40    4        2.58682344       7.82790588       4.50812861
