 # Mn4 F8
 
          12  atoms
           2  atom types
 
      0.00000000       5.28400300  xlo xhi
      0.00000000       5.28398901  ylo yhi
      0.00000000       5.26041399  zlo zhi
     -0.00001500      -0.00015763      -0.00045397  xy xz yz
 
Masses
 
           1   54.93804500    # Mn
           2   18.99840320    # F 
 
Atoms # atomic
 
         1    1        2.64183638       2.64174663       5.26028248
         2    1        0.00034346       0.00020079       0.00000526
         3    1        5.28359965       2.64166713       2.63012283
         4    1        2.64197109       5.28356650       2.63040163
         5    2        1.46259766       3.82096193       3.99709927
         6    2        3.82105040       1.46243757       3.99726234
         7    2        4.13163581       4.13134605       3.84444731
         8    2        1.15224862       1.15215912       3.84388445
         9    2        3.82123658       3.82108687       1.26350410
        10    2        4.13154794       1.15212028       1.41625074
        11    2        1.15231291       4.13142879       1.41625074
        12    2        1.46259645       1.46248331       1.26297805
