 # Cd3 Te3
 
           6  atoms
           2  atom types
 
      0.00000000       4.62466889  xlo xhi
      0.00000000       4.00508023  ylo yhi
      0.00000000      10.49997600  zlo zhi
