 # Cd1 Te1
 
           2  atoms
           2  atom types
 
      0.00000000       4.33677640  xlo xhi
      0.00000000       3.75575853  ylo yhi
      0.00000000       3.54096310  zlo zhi
