 # Cd1 Te1
 
           2  atoms
           2  atom types
 
      0.00000000       3.09419900  xlo xhi
      0.00000000       3.09419900  ylo yhi
      0.00000000       6.37295600  zlo zhi
 
Masses
 
           1   112.41100000    # Cd
           2   127.60000000    # Te
 
Atoms # atomic
 
         1    1        0.00000000       0.00000000       3.18647800
         2    2        0.00000000       0.00000000       0.00000000
