 # Cd2 Te2
 
           4  atoms
           2  atom types
 
      0.00000000       4.35575640  xlo xhi
      0.00000000       4.35555906  ylo yhi
      0.00000000       6.09065200  zlo zhi
     -0.04146144       0.00000000       0.00000000  xy xz yz
 
Masses
 
           1   112.41100000    # Cd
           2   127.60000000    # Te
 
Atoms # atomic
 
         1    1        1.17669982       3.14893854       4.56798900
         2    1        3.13759514       1.20662053       1.52266300
         3    2        3.32740984       1.01860411       4.56798900
         4    2        0.98688511       3.33695496       1.52266300
