 # Cd2 Te2
 
           4  atoms
           2  atom types
 
      0.00000000       4.68430241  xlo xhi
      0.00000000       4.05672465  ylo yhi
      0.00000000       7.67369500  zlo zhi
