 # Sr2 Cu2 O4
 
           8  atoms
           3  atom types
 
      0.00000000       8.32909336  xlo xhi
      0.00000000       3.55615058  ylo yhi
      0.00000000       3.97426300  zlo zhi
