 # U1 O2
 
           3  atoms
           2  atom types
 
      0.00000000       3.83276341  xlo xhi
      0.00000000       3.31927048  ylo yhi
      0.00000000       3.12943822  zlo zhi
