 # U2 O4
 
           6  atoms
           2  atom types
 
      0.00000000       5.13850600  xlo xhi
      0.00000000       5.13850600  ylo yhi
      0.00000000       3.59010700  zlo zhi
 
Masses
 
           1   238.02891000    # U 
           2   15.99900000    # O 
 
Atoms # atomic
 
         1    1        0.00000000       0.00000000       0.00000000
         2    1        2.56925300       2.56925300       1.79505350
         3    2        1.58750032       1.58750032       0.00000000
         4    2        3.55100568       3.55100568       0.00000000
         5    2        0.98175268       4.15675332       1.79505350
         6    2        4.15675332       0.98175268       1.79505350
