 # C12
 
          12  atoms
           1  atom types
 
      0.00000000       2.52225173  xlo xhi
      0.00000000       2.18433423  ylo yhi
      0.00000000      12.43392700  zlo zhi
     -1.26112560       0.00000000       0.00000000  xy xz yz
 
Masses
 
           1   12.01100000    # C 
 
Atoms # atomic
 
         1    1        1.26112721       0.72811068       4.41230334
         2    1       -0.00000108       1.45622355      10.62926684
         3    1        1.26112721       0.72811068       0.25819049
         4    1       -0.00000108       1.45622355       8.02162366
         5    1       -0.00000108       1.45622355      12.17573651
         6    1        0.00000000       0.00000000       8.54088932
         7    1        1.26112721       0.72811068       5.95877301
         8    1       -0.00000108       1.45622355       6.47515399
         9    1        0.00000000       0.00000000       3.89303768
        10    1        1.26112721       0.72811068       1.80466016
        11    1        0.00000000       0.00000000      10.11000118
        12    1        0.00000000       0.00000000       2.32392582
