 # C20
 
          20  atoms
           1  atom types
 
      0.00000000       5.21736200  xlo xhi
      0.00000000       5.21736200  ylo yhi
      0.00000000       5.21736200  zlo zhi
 
Masses
 
           1   12.01100000    # C 
 
Atoms # atomic
 
         1    1        2.60868100       0.79049295       4.42686905
         2    1        0.79049295       0.79049295       2.60868100
         3    1        0.79049295       2.60868100       4.42686905
         4    1        2.60868100       4.42686905       0.79049295
         5    1        0.79049295       4.42686905       2.60868100
         6    1        0.79049295       2.60868100       0.79049295
         7    1        2.60868100       0.79049295       0.79049295
         8    1        4.42686905       0.79049295       2.60868100
         9    1        4.42686905       2.60868100       0.79049295
        10    1        2.60868100       4.42686905       4.42686905
        11    1        4.42686905       4.42686905       2.60868100
        12    1        4.42686905       2.60868100       4.42686905
        13    1        1.36915579       1.36915579       3.84820621
        14    1        1.36915579       3.84820621       1.36915579
        15    1        3.84820621       1.36915579       1.36915579
        16    1        3.84820621       3.84820621       3.84820621
        17    1        3.84820621       3.84820621       1.36915579
        18    1        3.84820621       1.36915579       3.84820621
        19    1        1.36915579       3.84820621       3.84820621
        20    1        1.36915579       1.36915579       1.36915579
