 # C120
 
         120  atoms
           1  atom types
 
      0.00000000       9.11809600  xlo xhi
      0.00000000       9.63450600  ylo yhi
      0.00000000      13.32243700  zlo zhi
 
Masses
 
           1   12.01100000    # C 
 
Atoms # atomic
 
         1    1        4.55904800       2.57875261       3.62098509
         2    1        4.55904800       7.05575339       9.70145191
         3    1        0.00000000       2.23850039      10.28220359
         4    1        0.00000000       7.39600561       3.04023341
         5    1        3.75991071       7.31327410       4.03286155
         6    1        3.75991071       2.32123190       9.28957545
         7    1        0.79913729       7.13848490      10.69408005
         8    1        0.79913729       2.49602110       2.62835695
         9    1        5.35818529       2.32123190       9.28957545
        10    1        5.35818529       7.31327410       4.03286155
        11    1        8.31895871       2.49602110       2.62835695
        12    1        8.31895871       7.13848490      10.69408005
        13    1        0.70585005       3.77956853       5.72791518
        14    1        0.70585005       5.85493747       7.59452182
        15    1        3.85319795       1.03768447      12.38913368
        16    1        3.85319795       8.59682153       0.93330332
        17    1        8.41224595       5.85493747       7.59452182
        18    1        8.41224595       3.77956853       5.72791518
        19    1        5.26489805       8.59682153       0.93330332
        20    1        5.26489805       1.03768447      12.38913368
        21    1        3.77467291       4.71505979       3.35734738
        22    1        3.77467291       4.91944621       9.96508962
        23    1        0.78437509       0.10219321      10.01856588
        24    1        0.78437509       9.53231279       3.30387112
        25    1        5.34342309       4.91944621       9.96508962
        26    1        5.34342309       4.71505979       3.35734738
        27    1        8.33372091       9.53231279       3.30387112
        28    1        8.33372091       0.10219321      10.01856588
        29    1        2.04872675       5.80511744       4.88455162
        30    1        2.04872675       3.82938856       8.43788538
        31    1        2.51032125       8.64664156      11.54577012
        32    1        2.51032125       0.98786444       1.77666688
        33    1        7.06936925       3.82938856       8.43788538
        34    1        7.06936925       5.80511744       4.88455162
        35    1        6.60777475       0.98786444       1.77666688
        36    1        6.60777475       8.64664156      11.54577012
        37    1        2.56376241       7.32812088       2.95916638
        38    1        2.56376241       2.30638512      10.36327062
        39    1        1.99528559       7.12363812       9.62038488
        40    1        1.99528559       2.51086788       3.70205212
        41    1        6.55433359       2.30638512      10.36327062
        42    1        6.55433359       7.32812088       2.95916638
        43    1        7.12281041       2.51086788       3.70205212
        44    1        7.12281041       7.12363812       9.62038488
        45    1        3.33403180       3.35500476       3.41005094
        46    1        3.33403180       6.27950124       9.91238606
        47    1        1.22501620       1.46224824      10.07126944
        48    1        1.22501620       8.17225776       3.25116756
        49    1        5.78406420       6.27950124       9.91238606
        50    1        5.78406420       3.35500476       3.41005094
        51    1        7.89307980       8.17225776       3.25116756
        52    1        7.89307980       1.46224824      10.07126944
        53    1        3.00493236       5.98269102       3.77692421
        54    1        3.00493236       3.65181498       9.54551279
        55    1        1.55411564       8.46906798      10.43814271
        56    1        1.55411564       1.16543802       2.88429429
        57    1        6.11316364       3.65181498       9.54551279
        58    1        6.11316364       5.98269102       3.77692421
        59    1        7.56398036       1.16543802       2.88429429
        60    1        7.56398036       8.46906798      10.43814271
        61    1        1.36553518       4.73410721       5.13342807
        62    1        1.36553518       4.90039879       8.18900893
        63    1        3.19351282       0.08314579      11.79464657
        64    1        3.19351282       9.55136021       1.52779043
        65    1        7.75256082       4.90039879       8.18900893
        66    1        7.75256082       4.73410721       5.13342807
        67    1        5.92458318       9.55136021       1.52779043
        68    1        5.92458318       0.08314579      11.79464657
        69    1        4.55904800       8.03274047       8.70551981
        70    1        4.55904800       1.60176553       4.61691719
        71    1        0.00000000       6.41901853       2.04430131
        72    1        0.00000000       3.21548747      11.27813569
        73    1        3.83660302       8.30030034       6.50297459
        74    1        3.83660302       1.33420566       6.81946241
        75    1        0.72244498       6.15145866      13.16419309
        76    1        0.72244498       3.48304734       0.15824391
        77    1        5.28149298       1.33420566       6.81946241
        78    1        5.28149298       8.30030034       6.50297459
        79    1        8.39565102       3.48304734       0.15824391
        80    1        8.39565102       6.15145866      13.16419309
        81    1        2.09916806       6.93325065       5.79394117
        82    1        2.09916806       2.70125535       7.52849583
        83    1        2.45987994       7.51850835      12.45515967
        84    1        2.45987994       2.11599765       0.86727733
        85    1        7.01892794       2.70125535       7.52849583
        86    1        7.01892794       6.93325065       5.79394117
        87    1        6.65821606       2.11599765       0.86727733
        88    1        6.65821606       7.51850835      12.45515967
        89    1        2.17291522       7.55233510       8.15977950
        90    1        2.17291522       2.08217090       5.16265750
        91    1        2.38613278       6.89942390       1.49856100
        92    1        2.38613278       2.73508210      11.82387600
        93    1        6.94518078       2.08217090       5.16265750
        94    1        6.94518078       7.55233510       8.15977950
        95    1        6.73196322       2.73508210      11.82387600
        96    1        6.73196322       6.89942390       1.49856100
        97    1        3.38660674       8.18339524       7.85240424
        98    1        3.38660674       1.45111076       5.47003276
        99    1        1.17244126       6.26836376       1.19118574
       100    1        1.17244126       3.36614224      12.13125126
       101    1        5.73148926       1.45111076       5.47003276
       102    1        5.73148926       8.18339524       7.85240424
       103    1        7.94565474       3.36614224      12.13125126
       104    1        7.94565474       6.26836376       1.19118574
       105    1        3.18051954       7.73427311       5.41369218
       106    1        3.18051954       1.90023289       7.90874482
       107    1        1.37852846       6.71748589      12.07491068
       108    1        1.37852846       2.91702011       1.24752632
       109    1        5.93757646       1.90023289       7.90874482
       110    1        5.93757646       7.73427311       5.41369218
       111    1        7.73956754       2.91702011       1.24752632
       112    1        7.73956754       6.71748589      12.07491068
       113    1        1.54061174       6.93516792       7.08565802
       114    1        1.54061174       2.69933808       6.23677898
       115    1        3.01843626       7.51659108       0.42443952
       116    1        3.01843626       2.11791492      12.89799748
       117    1        7.57748426       2.69933808       6.23677898
       118    1        7.57748426       6.93516792       7.08565802
       119    1        6.09965974       2.11791492      12.89799748
       120    1        6.09965974       7.51659108       0.42443952
