 # C120
 
         120  atoms
           1  atom types
 
      0.00000000       9.18666900  xlo xhi
      0.00000000      10.20196700  ylo yhi
      0.00000000      14.64883900  zlo zhi
 
Masses
 
           1   12.01100000    # C 
 
Atoms # atomic
 
         1    1        3.86877273       1.65460602       6.84814180
         2    1        3.86877273       8.54736098       7.80069720
         3    1        5.39937284       9.58883899      14.12898100
         4    1        5.39937284       0.61312801       0.51985800
         5    1        8.38063066       4.48785549       7.84427750
         6    1        8.38063066       5.71411151       6.80456150
         7    1        3.78729616       0.61312801       0.51985800
         8    1        3.78729616       9.58883899      14.12898100
         9    1        0.80603834       5.71411151       6.80456150
        10    1        0.80603834       4.48785549       7.84427750
        11    1        6.13403076       9.85743637      12.81462857
        12    1        6.13403076       0.34453063       1.83421043
        13    1        7.64597274       4.75645287       9.15862993
        14    1        7.64597274       5.44551413       5.49020907
        15    1        3.05263824       0.34453063       1.83421043
        16    1        3.05263824       9.85743637      12.81462857
        17    1        1.54069626       5.44551413       5.49020907
        18    1        1.54069626       4.75645287       9.15862993
        19    1        6.13181677       8.33246675      14.60575676
        20    1        6.13181677       1.86950025       0.04308224
        21    1        7.64818673       3.23148325       7.36750174
        22    1        7.64818673       6.97048375       7.28133726
        23    1        3.05485223       1.86950025       0.04308224
        24    1        3.05485223       8.33246675      14.60575676
        25    1        1.53848227       6.97048375       7.28133726
        26    1        1.53848227       3.23148325       7.36750174
        27    1        8.48630492       2.22727303      12.02807381
        28    1        8.48630492       7.97469397       2.62076519
        29    1        5.29369858       7.32825653       9.94518469
        30    1        5.29369858       2.87371047       4.70365431
        31    1        0.70036408       7.97469397       2.62076519
        32    1        0.70036408       2.22727303      12.02807381
        33    1        3.89297042       2.87371047       4.70365431
        34    1        3.89297042       7.32825653       9.94518469
        35    1        0.00000000       7.99204751      11.85628687
        36    1        0.00000000       2.20991949       2.79255213
        37    1        4.59333450       2.89106401      10.11697163
        38    1        4.59333450       7.31090299       4.53186737
        39    1        0.00000000       7.08250135      12.91860603
        40    1        0.00000000       3.11946565       1.73023297
        41    1        4.59333450       1.98151785       9.05465247
        42    1        4.59333450       8.22044915       5.59418653
        43    1        8.01862078       8.80934749      11.59605025
        44    1        8.01862078       1.39261951       3.05278875
        45    1        5.76138272       3.70836399      10.37720825
        46    1        5.76138272       6.49360301       4.27163075
        47    1        1.16804822       1.39261951       3.05278875
        48    1        1.16804822       8.80934749      11.59605025
        49    1        3.42528628       6.49360301       4.27163075
        50    1        3.42528628       3.70836399      10.37720825
        51    1        8.01637924       6.95679271      13.76573374
        52    1        8.01637924       3.24517429       0.88310526
        53    1        5.76362426       1.85580921       8.20752476
        54    1        5.76362426       8.34615779       6.44131424
        55    1        1.17028976       3.24517429       0.88310526
        56    1        1.17028976       6.95679271      13.76573374
        57    1        3.42304474       8.34615779       6.44131424
        58    1        3.42304474       1.85580921       8.20752476
        59    1        7.76126544       1.04512011      11.60243714
        60    1        7.76126544       9.15684689       3.04640186
        61    1        6.01873806       6.14610361      10.37082136
        62    1        6.01873806       4.05586339       4.27801764
        63    1        1.42540356       9.15684689       3.04640186
        64    1        1.42540356       1.04512011      11.60243714
        65    1        3.16793094       4.05586339       4.27801764
        66    1        3.16793094       6.14610361      10.37082136
        67    1        7.76101740       7.36312685       1.52440213
        68    1        7.76101740       2.83884015      13.12443687
        69    1        6.01898610       2.26214335       5.80001737
        70    1        6.01898610       7.93982365       8.84882163
        71    1        1.42565160       2.83884015      13.12443687
        72    1        1.42565160       7.36312685       1.52440213
        73    1        3.16768290       7.93982365       8.84882163
        74    1        3.16768290       2.26214335       5.80001737
        75    1        6.58527075       0.91112747      12.43493066
        76    1        6.58527075       9.29083953       2.21390834
        77    1        7.19473275       6.01211097       9.53832784
        78    1        7.19473275       4.18985603       5.11051116
        79    1        2.60139825       9.29083953       2.21390834
        80    1        2.60139825       0.91112747      12.43493066
        81    1        1.99193625       4.18985603       5.11051116
        82    1        1.99193625       6.01211097       9.53832784
        83    1        6.58411323       8.16206329       1.25760283
        84    1        6.58411323       2.03990371      13.39123617
        85    1        7.19589027       3.06107979       6.06681667
        86    1        7.19589027       7.14088721       8.58202233
        87    1        2.60255577       2.03990371      13.39123617
        88    1        2.60255577       8.16206329       1.25760283
        89    1        1.99077873       7.14088721       8.58202233
        90    1        1.99077873       3.06107979       6.06681667
        91    1        6.89153592       8.70228805      12.42395868
        92    1        6.89153592       1.49967895       2.22488032
        93    1        6.88846758       3.60130455       9.54929982
        94    1        6.88846758       6.60066245       5.09953918
        95    1        2.29513308       1.49967895       2.22488032
        96    1        2.29513308       8.70228805      12.42395868
        97    1        2.29820142       6.60066245       5.09953918
        98    1        2.29820142       3.60130455       9.54929982
        99    1        6.88897284       7.75780015      13.52782195
       100    1        6.88897284       2.44416685       1.12101705
       101    1        6.89103066       2.65681665       8.44543655
       102    1        6.89103066       7.54515035       6.20340245
       103    1        2.29769616       2.44416685       1.12101705
       104    1        2.29769616       7.75780015      13.52782195
       105    1        2.29563834       7.54515035       6.20340245
       106    1        2.29563834       2.65681665       8.44543655
       107    1        8.46165708      10.11507685      11.17023780
       108    1        8.46165708       0.08689015       3.47860120
       109    1        5.31834642       5.01409335      10.80302070
       110    1        5.31834642       5.18787365       3.84581830
       111    1        0.72501192       0.08689015       3.47860120
       112    1        0.72501192      10.11507685      11.17023780
       113    1        3.86832258       5.18787365       3.84581830
       114    1        3.86832258       5.01409335      10.80302070
       115    1        8.46210723       6.75558952       0.47627770
       116    1        8.46210723       3.44637748      14.17256130
       117    1        5.31789627       1.65460602       6.84814180
       118    1        5.31789627       8.54736098       7.80069720
       119    1        0.72456177       3.44637748      14.17256130
       120    1        0.72456177       6.75558952       0.47627770
