 # C16
 
          16  atoms
           1  atom types
 
      0.00000000       2.52325171  xlo xhi
      0.00000000       2.18520025  ylo yhi
      0.00000000      16.55991200  zlo zhi
     -1.26162557       0.00000000       0.00000000  xy xz yz
 
Masses
 
           1   12.01100000    # C 
 
Atoms # atomic
 
         1    1        0.00000000       0.00000000      15.78469284
         2    1        1.26162721       0.72839935       4.92360960
         3    1       -0.00000107       1.45680089      13.20356560
         4    1        1.26162721       0.72839935       3.35634640
         5    1       -0.00000107       1.45680089       1.29053050
         6    1       -0.00000107       1.45680089       5.44299468
         7    1       -0.00000107       1.45680089       6.98942550
         8    1        1.26162721       0.72839935      11.11691732
         9    1       -0.00000107       1.45680089      11.63630240
        10    1        0.00000000       0.00000000       7.50473684
        11    1        0.00000000       0.00000000       0.77521916
        12    1       -0.00000107       1.45680089       2.83696132
        13    1        1.26162721       0.72839935      13.72295068
        14    1        0.00000000       0.00000000       9.05517516
        15    1        1.26162721       0.72839935       9.57048650
        16    1        1.26162721       0.72839935      15.26938150
