 # C71
 
          71  atoms
           1  atom types
 
      0.00000000      14.77696759  xlo xhi
      0.00000000      12.83821952  ylo yhi
      0.00000000       7.49673500  zlo zhi
      7.31702745       0.00131078       0.00076166  xy xz yz
 
Masses
 
           1   12.01100000    # C 
 
Atoms # atomic
 
         1    1        2.45056337       2.84152575       3.70499139
         2    1        8.57088279       9.27700558       3.71807319
         3    1       11.06800351       0.70211509       3.72068206
         4    1        3.68214727       0.72202558       3.70499139
         5    1       12.30385176       2.85273485       3.71807319
         6    1        6.09047781       9.26821166       3.72068206
         7    1        1.21795953       2.13169872       3.68648945
         8    1        8.55184974      10.70072336       3.69594283
         9    1       19.61754950      12.82532081       3.70091317
        10    1        2.45510855       0.00262123       3.68648945
        11    1       13.53135233       2.13122466       3.69594283
        12    1       20.85654112      10.69307228       3.70091317
        13    1        8.61532679       2.14393593       3.70996172
        14    1        4.91057158       4.28089560       3.70521629
        15    1        8.60509737       6.42959024       3.70870227
        16    1        6.12865272       6.42338951       3.70996172
        17    1        6.15077917       2.14655444       3.70521629
        18    1        9.84696107       4.29239900       3.70870227
        19    1        3.67686031       4.98136633       3.75081143
        20    1        9.83344023       7.14645517       3.75229579
        21    1        8.61957429       0.72108039       3.75263314
        22    1        6.14845784       0.72785879       3.75081143
        23    1       11.07800442       5.00461649       3.75229579
        24    1        4.89458000       7.13162706       3.75263314
        25    1        2.45530740       4.25942244       3.75623157
        26    1        9.81474518       8.57013753       3.76056469
        27    1       17.15218268      12.82319582       3.76150927
        28    1        4.91636403       0.02405530       3.75623157
        29    1       12.30564158       4.28341751       3.76056469
        30    1       19.63393319       8.55221547       3.76150927
        31    1       15.99815987       4.95568296       3.80901608
        32    1       11.04457310       9.29243340       3.80788408
        33    1       17.14649305      11.38293139       3.80153434
        34    1       12.22721235      11.44531306       3.80901608
        35    1       13.54213868       4.99423602       3.80788408
        36    1       18.37981512       9.26043991       3.80153434
        37    1       16.00206848       6.37911334       3.86437947
        38    1       12.31047189       8.58790317       3.86278267
        39    1       15.89593569      10.65377645       3.84649226
        40    1       13.46582311      10.74387689       3.86437947
        41    1       13.55687123       6.44290629       3.86278267
        42    1       17.12709438       8.53500805       3.84649226
        43    1       14.76090063       2.84048691       3.71532939
        44    1        9.77688478      11.41775273       3.71532939
        45    1       19.61994173      11.40061444       3.72262371
        46    1       14.76334101       4.26525370       3.78288996
        47    1       11.01592960      10.71437922       3.78288996
        48    1       18.38122964      10.68083255       3.77891669
        49    1       14.80924882       7.05861802       3.89785989
        50    1       13.46553456       9.37108948       3.89785989
        51    1       15.89781374       9.23778712       3.86710828
        52    1       11.06993653       2.13591200       3.70957939
        53    1        3.68543807       2.14150782       3.69335646
        54    1        7.33711676       8.55992596       3.70957939
        55    1        9.84720030       2.85943500       3.70430919
        56    1        4.91419589       2.85550556       3.69498325
        57    1        7.36025768       7.13935076       3.70430919
        58    1        7.38196358       2.86087173       3.69292914
        59    1        6.14080858       4.99684334       3.69292914
        60    1        8.61085233       5.00353206       3.69304909
        61    1        7.37776223       4.28701694       3.68074695
        62    1        3.66358601       6.41297262       3.78621851
        63    1       11.08524150       6.44133230       3.78673579
        64    1        7.38566347       0.00744569       3.78621851
        65    1       17.22162874       7.10544622       3.84250400
        66    1       12.30771303       7.15167725       3.84840393
        67    1       14.70074339      11.44377588       3.84250400
        68    1        7.31190564      11.40774736       3.67207323
        69    1       13.53163820       0.70386899       3.67207323
        70    1        1.21972054       0.70874643       3.66137539
        71    1       22.08254915      12.83156863       3.65767200
