 # C120
 
         120  atoms
           1  atom types
 
      0.00000000       8.32137500  xlo xhi
      0.00000000       9.59662600  ylo yhi
      0.00000000      14.07642100  zlo zhi
 
Masses
 
           1   12.01100000    # C 
 
Atoms # atomic
 
         1    1        1.27669864       2.72113290       2.04658493
         2    1        6.80654357       3.38069941       6.31875055
         3    1        1.91622127       8.01114823       2.95810357
         4    1        1.56147273       3.12020859      13.45011880
         5    1        5.70417774       1.15414782       1.69993898
         6    1        1.27669864       6.87549310       2.04658493
         7    1        6.75990227       6.47641741       0.62630220
         8    1        2.64585607       1.41761359       0.71945995
         9    1        5.76877658       8.90340412      12.13653535
        10    1        7.04467636       6.87549310      12.02983607
        11    1        6.80654357       6.21592659       6.31875055
        12    1        5.72216023       1.67810441       7.66451270
        13    1        1.51483143       6.21592659       7.75767045
        14    1        7.04467636       2.72113290      12.02983607
        15    1        0.52512037       8.40080003      10.54152201
        16    1        6.52668741       4.79831300       9.57818806
        17    1        1.18940741       5.50707181       6.61572080
        18    1        1.87978197       2.29866063      12.31316628
        19    1        6.06881207       2.15098775       6.34931046
        20    1        0.64587184       4.12274892      12.83621793
        21    1        2.61719726       1.15414782      12.37648202
        22    1        3.10035293       2.27254821       4.01308909
        23    1        5.95537509       0.00000000       2.53997756
        24    1        2.24446623       3.21283523       9.99631407
        25    1        2.61719726       8.44247818      12.37648202
        26    1        4.80655934       0.67556408       8.27841357
        27    1        2.28090553       2.49965237       5.27495578
        28    1        1.54349024       3.64416518       5.33827152
        29    1        5.72216023       7.91852159       7.66451270
        30    1        1.51483143       3.38069941       7.75767045
        31    1        6.71328592       4.10509112       5.09832485
        32    1        1.34213793       0.00000000      10.63004862
        33    1        7.13196759       5.50707181       7.46070020
        34    1        6.75990227       3.12020859       0.62630220
        35    1        6.04046947       2.49965237       8.80146522
        36    1        5.35009491       0.70875881       0.42248970
        37    1        5.67551893       8.17901241      13.35696105
        38    1        1.90812457       6.94930075       0.68890004
        39    1        6.07690877       3.21283523       4.08010693
        40    1        5.43738614       2.07718010       4.99162557
        41    1        7.67550316       5.47387708       1.24020307
        42    1        5.43738614       7.51944590       4.99162557
        43    1        6.97923707       0.00000000       3.44637238
        44    1        2.25256293       2.15098775       7.72711054
        45    1        6.40515373       1.58547777      11.11831743
        46    1        3.51481566       0.67556408       5.79800743
        47    1        0.52512037       1.19582597      10.54152201
        48    1        3.51481566       8.92106192       5.79800743
        49    1        1.60808908       5.49153488       8.97809615
        50    1        6.41325043       2.64732525      13.38752096
        51    1        2.59921477       7.91852159       6.41190830
        52    1        8.26351648       6.29368805      11.78203476
        53    1        5.22102207       7.32407779      10.06333191
        54    1        3.63556713       5.99413897       3.50331151
        55    1        6.40515373       8.01114823      11.11831743
        56    1        6.77788476       3.64416518       8.73814948
        57    1        4.10282898       1.49537505       9.33259674
        58    1        5.22102207       2.27254821      10.06333191
        59    1        6.41325043       6.94930075      13.38752096
        60    1        6.44159303       2.29866063       1.76325472
        61    1        0.79035588       0.75371901       3.55219892
        62    1        1.06033457       2.52576479      11.05129959
        63    1        1.18940741       4.08955419       6.61572080
        64    1        0.64587184       5.47387708      12.83621793
        65    1        1.91622127       1.58547777       2.95810357
        66    1        7.79625463       8.40080003       3.53489899
        67    1        3.63556713       3.60248703       3.50331151
        68    1        2.28090553       7.09697363       5.27495578
        69    1        5.67551893       1.41761359      13.35696105
        70    1        7.53101912       8.84290699      10.52422208
        71    1        4.80655934       8.92106192       8.27841357
        72    1        4.21854602       8.10125095       4.74382426
        73    1        2.36599991       0.00000000      11.53644344
        74    1        2.97128009       8.88786719      13.65393130
        75    1        7.67550316       4.12274892       1.24020307
        76    1        3.37033162       4.04459399      10.59040942
        77    1        1.54349024       5.95246082       5.33827152
        78    1        8.26351648       3.30293795      11.78203476
        79    1        6.77788476       5.95246082       8.73814948
        80    1        5.50282543       4.79831300      10.48458288
        81    1        2.55259842       8.90340412       1.93988565
        82    1        1.79468759       4.79831300       4.49823294
        83    1        1.06033457       7.07086121      11.05129959
        84    1        2.25256293       7.44563825       7.72711054
        85    1        6.44159303       7.29796537       1.76325472
        86    1        2.24446623       6.38379077       9.99631407
        87    1        4.21854602       1.49537505       4.74382426
        88    1        5.70417774       8.44247818       1.69993898
        89    1        4.95104338       5.55203201       3.48601158
        90    1        6.06881207       7.44563825       6.34931046
        91    1        2.81854957       4.79831300       3.59183812
        92    1        4.95104338       4.04459399       3.48601158
        93    1        2.55259842       0.69322188       1.93988565
        94    1        0.05785852       6.29368805       2.29438624
        95    1        2.59921477       1.67810441       6.41190830
        96    1        2.88398886       7.51944590       9.08479543
        97    1        7.79625463       1.19582597       3.53489899
        98    1        5.35009491       8.88786719       0.42248970
        99    1        0.05785852       3.30293795       2.29438624
       100    1        7.26104043       7.07086121       3.02512141
       101    1        2.88398886       2.07718010       9.08479543
       102    1        6.71328592       5.49153488       5.09832485
       103    1        6.04046947       7.09697363       8.80146522
       104    1        7.53101912       0.75371901      10.52422208
       105    1        0.79035588       8.84290699       3.55219892
       106    1        2.97128009       0.70875881      13.65393130
       107    1        4.10282898       8.10125095       9.33259674
       108    1        4.68580787       3.60248703      10.57310949
       109    1        4.68580787       5.99413897      10.57310949
       110    1        2.64585607       8.17901241       0.71945995
       111    1        1.56147273       6.47641741      13.45011880
       112    1        1.60808908       4.10509112       8.97809615
       113    1        7.26104043       2.52576479       3.02512141
       114    1        6.07690877       6.38379077       4.08010693
       115    1        3.37033162       5.55203201      10.59040942
       116    1        1.87978197       7.29796537      12.31316628
       117    1        5.76877658       0.69322188      12.13653535
       118    1        3.10035293       7.32407779       4.01308909
       119    1        1.90812457       2.64732525       0.68890004
       120    1        7.13196759       4.08955419       7.46070020
