 # C1
 
           1  atoms
           1  atom types
 
      0.00000000       3.33882400  xlo xhi
      0.00000000       1.28289900  ylo yhi
      0.00000000       3.40150600  zlo zhi
      0.00000000       0.00000000       0.44617800  xy xz yz
 
Masses
 
           1   12.01100000    # C 
 
Atoms # atomic
 
         1    1        0.00000000       0.00000000       0.00000000
