 # C1
 
           1  atoms
           1  atom types
 
      0.00000000       1.77606000  xlo xhi
      0.00000000       1.77606000  ylo yhi
      0.00000000       1.77606000  zlo zhi
 
Masses
 
           1   12.01100000    # C 
 
Atoms # atomic
 
         1    1        0.00000000       0.00000000       0.00000000
