 # C4
 
           4  atoms
           1  atom types
 
      0.00000000       2.51309379  xlo xhi
      0.00000000       2.17640319  ylo yhi
      0.00000000       4.18140200  zlo zhi
     -1.25654668       0.00000000       0.00000000  xy xz yz
 
Masses
 
           1   12.01100000    # C 
 
Atoms # atomic
 
         1    1       -0.00000111       1.45093618       0.26247497
         2    1        1.25654822       0.72546700       2.35317597
         3    1        1.25654822       0.72546700       3.91892703
         4    1       -0.00000111       1.45093618       1.82822603
