 # C100
 
         100  atoms
           1  atom types
 
      0.00000000      10.68130859  xlo xhi
      0.00000000      10.74768430  ylo yhi
      0.00000000      10.36899083  zlo zhi
      0.02032588       0.58670862      -0.93092910  xy xz yz
 
Masses
 
           1   12.01100000    # C 
 
Atoms # atomic
 
         1    1        7.55447680       6.26538178       0.74448058
         2    1        8.74307284       9.01596313       9.31303458
         3    1        6.02689838       5.81511157       7.97681788
         4    1        0.35373464       6.88712301       2.30105835
         5    1        0.54748022       5.04718112       5.63931803
         6    1        1.48635120       5.31317806       4.64668686
         7    1        8.57382724       4.25653578       3.74496624
         8    1        1.73020234       0.11951115       8.83345693
         9    1        4.19437437       2.30199271       7.13242139
        10    1        1.92272192       9.66823127       8.59781052
        11    1        4.85088815       5.28889812       8.81412768
        12    1        0.65447004       3.76870230       7.80703489
        13    1        3.94625692       6.46301301       0.83705908
        14    1        5.20465141       0.03305174       5.24470410
        15    1        8.64734244      -0.38032515       9.00464016
        16    1        7.87253787       3.33906642       2.99638524
        17    1        1.58450393       7.97901088       0.49839934
        18    1        3.04703772       7.74850277       9.93628973
        19    1        1.36609631       4.79334591       6.94934463
        20    1        1.24923639      10.38971122       1.13558118
        21    1        2.83770315       6.72083179       6.80025585
        22    1        8.76230998       3.17309892       8.14766277
        23    1        8.00076167       2.00981677       8.22456262
        24    1        4.47932643       1.86000384       2.26264911
        25    1        0.63255048       1.52666094       6.70068358
        26    1       10.58485656       6.75293408       9.06478196
        27    1        9.78913343       5.03581236       3.62590938
        28    1        2.61564641       2.18004509       9.73286569
        29    1        8.11153984       9.39064023       0.20291607
        30    1        6.15117671       5.16658468       4.59790709
        31    1        5.04619828       4.60791756       3.92636344
        32    1        6.16180524       5.64598349       9.56302172
        33    1        3.06970264       3.10713807       0.39130653
        34    1        1.16612781       7.09189926       8.43757571
        35    1        6.17374349       5.97527837       0.46964260
        36    1       10.51926736       8.11459166       2.77008782
        37    1        7.95428304       8.55807908       1.13189843
        38    1        8.51650925       0.75502452       8.57055667
        39    1        5.13567033      10.46631191       1.18565273
        40    1       10.44568395       5.77532543       2.75896138
        41    1        8.65303628       0.02448879       3.86611660
        42    1        7.17275320       7.06018787       3.04841000
        43    1        5.07845114       5.81235602       1.39997500
        44    1        8.54759461       7.99844716       8.24244084
        45    1        6.46604832      -0.25431759       4.89379951
        46    1        4.87041409       6.26692987       9.98631337
        47    1        3.25244978       3.27148306       5.37778315
        48    1       10.35269338       6.08882193      10.22167402
        49    1        7.12800512       4.77798877       5.74093186
        50    1        2.35890260       5.33334643       3.79047740
        51    1        1.18609005       9.32351529       0.22793520
        52    1       10.23486235       9.21344188       3.21274886
        53    1        4.18385980       3.41631015       4.31580832
        54    1        0.44893060       0.47734626       4.31980256
        55    1        1.68324693       1.52441801       8.94008749
        56    1        4.44749200       2.11221173       3.71739582
        57    1        3.48446247       3.28791915       9.80955785
        58    1        9.25147567       6.80474693       8.44662224
        59    1        9.92720689       4.96535271       5.14858418
        60    1        2.93537163       0.13960848       4.30439891
        61    1        3.19428248       5.52016833       2.71719882
        62    1        1.56541919       7.00425114       1.43829412
        63    1        7.62955040       7.37900231       1.76297543
        64    1        3.11812122       9.58069174       4.56919784
        65    1        3.96654428       4.12893123       8.81133666
        66    1        3.28101713       7.51596722       5.96317251
        67    1        0.44685943       0.98986132       5.62033998
        68    1        6.61413745       2.00758342       7.98696798
        69    1        6.23614392       8.57819174       6.77512526
        70    1        8.73814592       5.43184794       8.74681613
        71    1        6.65082204       1.04428334       2.80614703
        72    1        5.45996518       0.76311537       1.98419381
        73    1        7.20968994       2.31304459       2.79433374
        74    1        0.77166281       2.25123557       7.94102889
        75    1        6.20566423       7.23724271       7.40214632
        76    1        7.32752611       8.01360473       7.50912704
        77    1        1.75799414       6.22382045       7.54102693
        78    1        3.38844094       8.45304064       5.04517527
        79    1        1.63883461       0.42755314       3.58930280
        80    1        1.53397968       0.10178902       2.23301537
        81    1        2.78882807       6.29715146       1.58893462
        82    1        9.14922796       5.35630824      10.14375281
        83    1        4.58312286       5.23399570       2.67492579
        84    1        3.69479376       1.95949494       5.88647952
        85    1        8.45988026       4.53068981       5.14370349
        86    1        4.58747142       9.59956455       0.44533146
        87    1        7.00538389       4.92274820       7.12450778
        88    1        6.68770109       6.25710082       3.85058499
        89    1        1.92074239       8.29758354       9.05186023
        90    1        5.92774168       9.67780160       5.94316129
        91    1        7.33669972       0.16144707       3.82226873
        92    1        2.76838220       4.09743965       6.53422747
        93    1       10.21497098       3.16574321       8.19150690
        94    1        4.10248628       1.01678545       4.79559086
        95    1        8.12807210       4.48828435       7.97112686
        96    1        4.49164280       7.73584970      10.11323646
        97    1        3.74582810       2.51781720       1.34931429
        98    1        3.58700048       3.59964604       7.51703236
        99    1        5.42743172       1.92866774       7.67342100
       100    1        9.94052588      -0.26274125       3.77655942
