 # C8
 
           8  atoms
           1  atom types
 
      0.00000000       3.70643751  xlo xhi
      0.00000000       3.67260804  ylo yhi
      0.00000000       4.27273600  zlo zhi
     -0.49962905       0.00000000       0.00000000  xy xz yz
 
Masses
 
           1   12.01100000    # C 
 
Atoms # atomic
 
         1    1        0.12805488       3.12453373       1.36275069
         2    1        3.07875358       0.54807432       2.90998531
         3    1        3.07875358       0.54807432       1.36275069
         4    1        0.12805488       3.12453373       2.90998531
         5    1        1.85321876       0.00000000       3.60173272
         6    1        1.85321876       0.00000000       0.67100328
         7    1       -0.24981452       1.83630402       0.67100328
         8    1       -0.24981452       1.83630402       3.60173272
