 # C12
 
          12  atoms
           1  atom types
 
      0.00000000       5.80144774  xlo xhi
      0.00000000       5.41395417  ylo yhi
      0.00000000       4.78283208  zlo zhi
     -2.08468130      -1.85838322      -2.70697709  xy xz yz
 
Masses
 
           1   12.01100000    # C 
 
Atoms # atomic
 
         1    1        4.84494704       0.65665309       0.00000000
         2    1       -1.12818059       4.75730108       0.00000000
         3    1        0.00000186       0.00000271       1.16020506
         4    1        1.85838136       2.70697438       3.62262703
         5    1        4.81714326       2.10216802       0.00000000
         6    1        0.23077565       5.25078301       0.00000000
         7    1        0.66557438       0.96949572       2.00126608
         8    1        2.52396131       3.67647822       2.78156600
         9    1       -1.10037682       3.31178615       0.00000000
        10    1        3.48599079       0.16317116       0.00000000
        11    1        1.19280885       1.73748136       2.78156600
        12    1       -0.66557809      -0.96950114       2.00126608
