 # C2
 
           2  atoms
           1  atom types
 
      0.00000000       2.46468630  xlo xhi
      0.00000000       2.13989173  ylo yhi
      0.00000000       3.72905500  zlo zhi
      1.22292352       0.22514683       0.13065098  xy xz yz
 
Masses
 
           1   12.01100000    # C 
 
Atoms # atomic
 
         1    1        0.83381700       0.83381700       0.99990500
         2    1        0.16618300       0.16618300       0.00009500
