 # C16
 
          16  atoms
           1  atom types
 
      0.00000000       2.52601800  xlo xhi
      0.00000000       4.15959500  ylo yhi
      0.00000000       9.07208800  zlo zhi
 
Masses
 
           1   12.01100000    # C 
 
Atoms # atomic
 
         1    1        1.89451350       1.76167167       6.30716052
         2    1        1.89451350       0.31812583       1.77111652
         3    1        0.63150450       2.39792333       2.76492748
         4    1        0.63150450       3.84146917       7.30097148
         5    1        0.63150450       0.82530108       6.25502323
         6    1        0.63150450       1.25449642       1.71897923
         7    1        1.89451350       3.33429392       2.81706477
         8    1        1.89451350       2.90509858       7.35310877
         9    1        0.63150450       1.69796748       0.18648584
        10    1        0.63150450       0.38183002       4.72252984
        11    1        1.89451350       2.46162752       8.88560216
        12    1        1.89451350       3.77776498       4.34955816
        13    1        0.63150450       0.28440815       8.73793578
        14    1        0.63150450       1.79538935       4.20189178
        15    1        1.89451350       3.87518685       0.33415222
        16    1        1.89451350       2.36420565       4.87019622
