 # C8
 
           8  atoms
           1  atom types
 
      0.00000000       3.68392010  xlo xhi
      0.00000000       3.66159312  ylo yhi
      0.00000000       6.26543900  zlo zhi
     -0.40497297       0.00000000       0.00000000  xy xz yz
 
Masses
 
           1   12.01100000    # C 
 
Atoms # atomic
 
         1    1        1.84196005       0.00000000       0.68277622
         2    1        0.10856338       3.20172266       5.04332753
         3    1        0.10856338       3.20172266       1.22211147
         4    1       -0.20248648       1.83079656       5.58266278
         5    1       -0.20248648       1.83079656       0.68277622
         6    1        1.84196005       0.00000000       5.58266278
         7    1        3.17038375       0.45987047       5.04332753
         8    1        3.17038375       0.45987047       1.22211147
