 # K2 Cu2 F6
 
          10  atoms
           3  atom types
 
      0.00000000       5.76071802  xlo xhi
      0.00000000       5.75698329  ylo yhi
      0.00000000       4.14612202  zlo zhi
