 # Zn2 Sb4 O12
 
          18  atoms
           3  atom types
 
      0.00000000       5.25533900  xlo xhi
      0.00000000       5.38590600  ylo yhi
      0.00000000       7.62815200  zlo zhi
 
Masses
 
           1   65.38000000    # Zn
           2   121.76000000    # Sb
           3   15.99900000    # O 
 
Atoms # atomic
 
         1    1        2.68647674       1.65283222       3.81407600
         2    1        0.05880724       3.73307378       0.00000000
         3    2        2.63578374       4.05458544       5.71848229
         4    2        0.00811424       1.33132056       5.72374571
         5    2        0.00811424       1.33132056       1.90440629
         6    2        2.63578374       4.05458544       1.90966971
         7    3        3.54032744       0.38624486       2.40254750
         8    3        0.91265794       4.99966114       1.41152850
         9    3        4.24474782       2.96824820       5.25603320
        10    3        1.61707832       2.41765780       6.18619480
        11    3        1.61707832       2.41765780       1.44195720
        12    3        4.24474782       2.96824820       2.37211880
        13    3        0.91265794       4.99966114       6.21662350
        14    3        3.54032744       0.38624486       5.22560450
        15    3        0.70727929       1.12302065       3.81407600
        16    3        3.33494879       4.26288535       0.00000000
        17    3        2.09500410       3.68808531       3.81407600
        18    3        4.72267360       1.69782069       0.00000000
