 # Mn4 H32 Cl8 O16
 
          60  atoms
           4  atom types
 
      0.00000000       9.60522800  xlo xhi
      0.00000000       6.20306300  ylo yhi
      0.00000000      11.05208600  zlo zhi
