 # K8 Cu4 F16
 
          28  atoms
           3  atom types
 
      0.00000000      13.56057746  xlo xhi
      0.00000000       7.98159439  ylo yhi
      0.00000000       4.19684987  zlo zhi
