 # K4 Cu2 F8
 
          14  atoms
           3  atom types
 
      0.00000000       7.09713069  xlo xhi
      0.00000000       5.38831212  ylo yhi
      0.00000000       5.93277400  zlo zhi
