 # K2 Cu1 F4
 
           7  atoms
           3  atom types
 
      0.00000000       6.57649609  xlo xhi
      0.00000000       4.18248710  ylo yhi
      0.00000000       3.91227500  zlo zhi
