 # La4 Ni2 O8
 
          14  atoms
           3  atom types
 
      0.00000000       5.51165200  xlo xhi
      0.00000000       5.67646700  ylo yhi
      0.00000000       6.21904350  zlo zhi
