 # La8 Ni4 O16
 
          28  atoms
           3  atom types
 
      0.00000000       5.60789200  xlo xhi
      0.00000000       5.60789200  ylo yhi
      0.00000000      12.42322900  zlo zhi
 
Masses
 
           1   138.90547000    # La
           2   58.69340000    # Ni
           3   15.99900000    # O 
 
Atoms # atomic
 
         1    1        0.07179784       0.07179784       7.91380807
         2    1        2.73214816       2.73214816       7.91380807
         3    1        2.87574384       2.87574384       4.50942093
         4    1        0.07179784       2.73214816       1.70219357
         5    1        2.73214816       0.07179784       1.70219357
         6    1        5.53609416       2.87574384      10.72103543
         7    1        2.87574384       5.53609416      10.72103543
         8    1        5.53609416       5.53609416       4.50942093
         9    2        2.80394600       0.00000000       6.21161450
        10    2        0.00000000       0.00000000       0.00000000
        11    2        2.80394600       2.80394600       0.00000000
        12    2        0.00000000       2.80394600       6.21161450
        13    3        4.20591900       1.40197300       6.21161450
        14    3        1.40197300       4.20591900       0.00000000
        15    3        1.40197300       4.20591900       6.21161450
        16    3        4.20591900       1.40197300       0.00000000
        17    3        1.40197300       1.40197300      12.11515777
        18    3        1.40197300       1.40197300       5.90354327
        19    3        4.20591900       4.20591900       6.51968573
        20    3        4.20591900       4.20591900       0.30807123
        21    3        5.34728765       5.34728765      10.19535892
        22    3        3.06455035       3.06455035      10.19535892
        23    3        2.54334165       2.54334165       2.22787008
        24    3        5.34728765       3.06455035       3.98374442
        25    3        3.06455035       5.34728765       3.98374442
        26    3        0.26060435       2.54334165       8.43948458
        27    3        2.54334165       0.26060435       8.43948458
        28    3        0.26060435       0.26060435       2.22787008
