 # La2 Ni1 O4
 
           7  atoms
           3  atom types
 
      0.00000000       6.84756580  xlo xhi
      0.00000000       5.07346783  ylo yhi
      0.00000000       2.77475065  zlo zhi
