 # Cu2 Sb4 O12
 
          18  atoms
           3  atom types
 
      0.00000000       4.73037100  xlo xhi
      0.00000000       4.73037100  ylo yhi
      0.00000000       9.40712400  zlo zhi
 
Masses
 
           1   63.54600000    # Cu
           2   121.76000000    # Sb
           3   15.99900000    # O 
 
Atoms # atomic
 
         1    1        0.00000000       0.00000000       0.00000000
         2    1        2.36518550       2.36518550       4.70356200
         3    2        2.36518550       2.36518550       7.82951168
         4    2        0.00000000       0.00000000       3.12594968
         5    2        2.36518550       2.36518550       1.57761232
         6    2        0.00000000       0.00000000       6.28117432
         7    3        3.29744702       3.29744702       6.31482361
         8    3        1.43292398       1.43292398       6.31482361
         9    3        3.29744702       3.29744702       3.09230039
        10    3        0.93226152       3.79810948       1.61126161
        11    3        3.79810948       0.93226152       1.61126161
        12    3        3.79810948       0.93226152       7.79586239
        13    3        1.46345380       1.46345380       0.00000000
        14    3        0.90173170       3.82863930       4.70356200
        15    3        3.82863930       0.90173170       4.70356200
        16    3        3.26691720       3.26691720       0.00000000
        17    3        1.43292398       1.43292398       3.09230039
        18    3        0.93226152       3.79810948       7.79586239
