 # Fe4 Co2 O8
 
          14  atoms
           3  atom types
 
      0.00000000       6.05516184  xlo xhi
      0.00000000       5.24392398  ylo yhi
      0.00000000       4.94401894  zlo zhi
