 # Ti2 Br2 O2
 
           6  atoms
           3  atom types
 
      0.00000000       3.38710600  xlo xhi
      0.00000000       4.04789100  ylo yhi
      0.00000000       8.40861300  zlo zhi
 
Masses
 
           1   47.86700000    # Ti
           2   79.90400000    # Br
           3   15.99900000    # O 
 
Atoms # atomic
 
         1    1        0.00000000       2.02394550       7.75347274
         2    1        1.69355300       0.00000000       0.65514026
         3    2        1.69355300       2.02394550       5.78943936
         4    2        0.00000000       0.00000000       2.61917364
         5    3        0.00000000       0.00000000       7.85919423
         6    3        1.69355300       2.02394550       0.54941877
