 # Ti8 Br8 O8
 
          24  atoms
           3  atom types
 
      0.00000000       4.41806500  xlo xhi
      0.00000000      11.03539400  ylo yhi
      0.00000000      11.14719500  zlo zhi
     -0.56335800       0.02476800      -0.57753500  xy xz yz
 
Masses
 
           1   47.86700000    # Ti
           2   79.90400000    # Br
           3   15.99900000    # O 
 
Atoms # atomic
 
         1    1       -0.39161898       8.63626829       8.49729495
         2    1        1.72151283       9.64663364       9.85370794
         3    1        2.15165187       0.84068362       1.28210578
         4    1        4.28275102       1.75369500       2.67110201
         5    1        3.90701522       9.98405379       1.20595929
         6    1        1.73907833       9.16322181       2.61467491
         7    1        4.37835865       0.48072012       9.96027512
         8    1        2.15499836       1.20453691       8.49176595
         9    2        4.08108385       3.89270153       1.60707996
        10    2       -0.46493014       9.17488515       3.85838975
        11    2       -0.06041598       1.29977307       7.23889926
        12    2        1.82608561       6.91402024       1.78612620
        13    2       -0.18394804       6.52205564       9.57798207
        14    2        2.07682090       3.48549598       9.30438531
        15    2        2.06893744       1.60327883       3.90570960
        16    2        1.81812139       8.88689729       7.25224245
        17    3        2.19498720       0.58900918      10.37308919
        18    3       -0.16573835       5.09747873       4.99418860
        19    3        1.82062822       5.43266098       6.18476476
        20    3       -0.02511616       0.94702731       0.89943372
        21    3        1.81611594       5.01683790       5.01601481
        22    3       -0.16143245       5.51253852       6.16851215
        23    3        1.66603654       9.89185116       0.79022465
        24    3        3.88465285       9.51796070      10.23242274
