 # Ti4 Br4 O4
 
          12  atoms
           3  atom types
 
      0.00000000       3.38439100  xlo xhi
      0.00000000       7.56566100  ylo yhi
      0.00000000      10.19761200  zlo zhi
      0.00000000       0.00000000       2.45706400  xy xz yz
 
Masses
 
           1   47.86700000    # Ti
           2   79.90400000    # Br
           3   15.99900000    # O 
 
Atoms # atomic
 
         1    1        0.00000000       4.20922713       7.44685715
         2    1        0.00000000       5.81349787       2.75075485
         3    1        0.00000000       8.95707650       9.21132956
         4    1        0.00000000       1.06564850       0.98628244
         5    2        0.00000000       8.19977070       3.52631384
         6    2        0.00000000       6.52137621       8.51209970
         7    2        0.00000000       3.50134879       1.68551230
         8    2        0.00000000       1.82295430       6.67129817
         9    3        0.00000000       6.66787498       0.92347535
        10    3        0.00000000       5.18751916       4.45644822
        11    3        0.00000000       4.83520584       5.74116378
        12    3        0.00000000       3.35485002       9.27413666
