 # Si100
 
         100  atoms
           1  atom types
 
      0.00000000      12.53983493  xlo xhi
      0.00000000      11.83012059  ylo yhi
      0.00000000      12.09162137  zlo zhi
     -3.49794290      -2.50743348       2.16426159  xy xz yz
 
Masses
 
           1   28.08500000    # Si
 
Atoms # atomic
 
         1    1       -0.71830776       3.49875051       5.05919907
         2    1       -1.97596305       9.74897848       4.17691832
         3    1        6.85598200       4.03398691       4.56086853
         4    1        7.91363151       0.90277036       3.85684597
         5    1       -0.90873925       1.63042994       6.96694520
         6    1        0.77550822       6.68452921       4.13033619
         7    1        5.82934700      12.40052379       8.87596240
         8    1        5.95250078      10.60502754       6.00894442
         9    1        2.84879266       5.35616215       6.26462224
        10    1        1.84907168       7.31256862       7.45785245
        11    1        4.83507209       4.88642268       7.45757241
        12    1       -1.69389054       8.40050598       6.76268434
        13    1        4.06645906      11.30044324       0.54378403
        14    1        7.27975158       2.03582230       7.51979771
        15    1        2.90163277       5.38422379      10.60579520
        16    1        9.70072894       2.75545628       2.27866665
        17    1        2.10431033       2.38848183       8.40697992
        18    1        5.91825693       3.36863344       1.11596367
        19    1        1.77001127      10.72609058       3.27194655
        20    1       -1.35697889       7.98521862      12.00024680
        21    1        4.09479899       8.13779546       7.45410151
        22    1        3.47665902       9.56515151       2.19511718
        23    1        4.40971133       1.07842091       5.80327924
        24    1        5.83255125       8.05014977       5.81960885
        25    1        4.91202317       2.77109442       4.03405980
        26    1        9.33193928       1.24070428       6.44943433
        27    1       -2.04790858       6.92508773       1.84396609
        28    1        1.77781316       4.85128477       8.51623328
        29    1        9.87948881       4.71122659       0.89160847
        30    1       -0.33934143       6.41450509       6.31138598
        31    1        6.60231410       5.76937485       6.20673263
        32    1        4.48561954       8.14784351       3.85863952
        33    1        3.72659635      10.40852329       6.94226765
        34    1       -3.30547998      10.27414432       2.26412865
        35    1        7.48585911       8.67066385       9.61079139
        36    1       -0.54576988       5.37875199       8.57739234
        37    1        7.65545945      10.81704743       8.61215007
        38    1        5.97761729       7.35708465       2.25432876
        39    1        3.47543155      11.78192833       8.83471764
        40    1        6.96812498       9.51604795       2.06432295
        41    1        1.71877975       3.78281988      12.03121513
        42    1        2.78165955      11.64349985       5.18052688
        43    1       -0.37726435      10.55704127       0.87189248
        44    1        1.35427503       1.66246066       6.25088470
        45    1       -0.03564981       8.23394484       1.49410398
        46    1        0.25082511       9.01535379       3.90821202
        47    1        5.99548355      10.98523555       3.68111336
        48    1        5.09616566       5.48520942       9.74492859
        49    1        6.06873774      13.47240250      11.04345857
        50    1       -2.36315326       5.22769900       5.59759605
        51    1        1.91532033      13.56219755       9.77519730
        52    1       -1.12500020      11.94601518       4.80386599
        53    1        4.73415934       2.57141321       7.64093967
        54    1        8.41812514       3.69144587       8.79894748
        55    1       -1.31109543       7.67429398       9.02532041
        56    1        7.56778594       5.09053598       0.65368817
        57    1        8.25654278      11.74827704       3.95950456
        58    1        8.84479795       5.71352248      11.54220034
        59    1       -2.97060268       9.52408971      11.28555145
        60    1        4.83380026       9.17307962      11.37336298
        61    1        0.55240256      11.10285448       7.68721249
        62    1       -0.81039131      13.43677290      11.92578563
        63    1        8.97315720       2.94545555       4.68309354
        64    1        5.27510905       7.84228127       9.48040103
        65    1       -3.49763693       6.91403034       9.42124640
        66    1        0.23566153       0.62182148       1.18139482
        67    1       -4.30675315      12.28139869      11.06137920
        68    1        0.73911260      10.56256877      10.92365720
        69    1        9.30252079       6.72110352       3.91925856
        70    1       -0.26090183       2.07660169       9.23922627
        71    1        3.96453694       4.45064919       2.56771178
        72    1       -1.89212225       3.73572989       9.81886752
        73    1       -0.44574890      12.39518434       9.81129683
        74    1        6.63523932       3.77569831      10.37644761
        75    1        4.29560951       6.24799149       0.99202914
        76    1       -0.65702752       2.10270975       3.06184641
        77    1        0.67689366       9.10052732       6.31072420
        78    1        7.54461601       1.61521325       1.62452058
        79    1        7.42825738       5.66686884       2.95255883
        80    1        0.37084962       4.03962697       1.25002722
        81    1       -0.00790964       6.43881478      10.83984485
        82    1       -4.13436175      10.98161372       6.29458455
        83    1        0.78516659       8.85158176       9.22712122
        84    1       -1.85741828      10.76590993       7.26624403
        85    1        6.42778648      10.61935323       0.04568142
        86    1        7.17369805      10.04584787      11.76180269
        87    1        4.83241320       1.07474190       2.31473874
        88    1        1.65970770       3.68679218       5.02229206
        89    1        2.40072247       7.70655632       0.96507946
        90    1       -0.71849698       4.36375666      11.91230698
        91    1        2.41175843       0.70282603       2.43284885
        92    1        2.03549327       3.10640346       2.69845679
        93    1        3.15737708      10.84189555      10.99552883
        94    1        3.10769472       6.25374368       4.06381184
        95    1       -0.69650717       5.17805129       3.07659843
        96    1       10.44662027       1.41293240       0.26853943
        97    1        8.61392801       5.58796835       7.43819293
        98    1       -2.58905368      11.09241498       9.57333203
        99    1        8.89526932       8.55723606       5.43002201
       100    1        2.09071826       7.60525194      10.87262923
