 # Si4
 
           4  atoms
           1  atom types
 
      0.00000000       3.85048180  xlo xhi
      0.00000000       3.33461517  ylo yhi
      0.00000000       6.36568600  zlo zhi
     -1.92524070       0.00000000       0.00000000  xy xz yz
 
Masses
 
           1   28.08500000    # Si
 
Atoms # atomic
 
         1    1       -0.00000179       2.22307789       0.40075813
         2    1        1.92524289       1.11153728       3.58360113
         3    1       -0.00000179       2.22307789       2.78208487
         4    1        1.92524289       1.11153728       5.96492787
