 # Si82
 
          82  atoms
           1  atom types
 
      0.00000000      14.84162398  xlo xhi
      0.00000000      13.06747545  ylo yhi
      0.00000000       9.87641300  zlo zhi
      7.03668159       0.61258422       0.36588433  xy xz yz
 
Masses
 
           1   28.08500000    # Si
 
Atoms # atomic
 
         1    1       11.41301973       8.57719108       0.99684612
         2    1        9.22159444       7.26829648       3.94136038
         3    1       11.07787006       4.85616870       8.87956688
         4    1       13.26929535       6.16506330       5.93505262
         5    1       13.73401358       8.90808102       1.04892444
         6    1        7.82983362       5.38163212       3.88928206
         7    1        8.75687621       4.52527876       8.82748856
         8    1       14.66105617       8.05172766       5.98713094
         9    1       14.70964259       7.18114942       2.30502640
        10    1        8.88776674       3.70385912       2.63318010
        11    1        7.78124720       6.25221036       7.57138660
        12    1       13.60312305       9.72950066       7.24323290
        13    1       16.38691178       5.96607047       1.17804867
        14    1        9.16237315       1.65099768       3.76015783
        15    1        6.10397801       7.46728931       8.69836433
        16    1       13.32851664      11.78236210       6.11625517
        17    1       10.73603127       4.53424664       1.38878169
        18    1       13.10222297       5.94752574       3.54942481
        19    1       11.75485852       8.89911314       8.48763131
        20    1        9.38866682       7.48583404       6.32698819
        21    1       16.02254423       2.66652779       9.80366334
        22    1       12.85283022       0.77332084       5.01095616
        23    1        6.46834556      10.76683199       0.07274966
        24    1        9.63805957      12.66003894       4.86545684
        25    1       15.89155947       3.73934456       1.75753732
        26    1       11.35777459       1.03140530       3.18066918
        27    1        6.59933032       9.69401522       8.11887568
        28    1       11.13311520      12.40195448       6.69574382
        29    1       13.72420934       2.02431039       9.83214692
        30    1       14.50795980       2.49242890       4.98247258
        31    1        8.76668045      11.40904939       0.04426608
        32    1        7.98292999      10.94093088       4.89394042
        33    1       13.94603498       3.77032912       3.08738646
        34    1       12.25290213       2.75905465       1.85082004
        35    1        8.54485481       9.66303066       6.78902654
        36    1       10.23798766      10.67430513       8.02559296
        37    1        6.08546708       1.54870015       0.95084179
        38    1       17.93579745       8.62666607       3.98736472
        39    1       16.40542271      11.88465962       8.92557122
        40    1        4.55509234       4.80669371       5.88904829
        41    1        7.15791819       3.63080715       1.02529019
        42    1       15.59411442       8.66957886       3.91291631
        43    1       15.33297160       9.80255263       8.85112281
        44    1        6.89677537       4.76378092       5.96349669
        45    1       14.62166264      10.37803729       2.63294307
        46    1        6.11474359       5.29702426       2.30526343
        47    1        7.86922715       3.05532249       7.24346994
        48    1       16.37614620       8.13633552       7.57114957
        49    1       13.26678528      11.93641708       3.73678036
        50    1        5.38502230       7.22879729       1.20142614
        51    1        9.22410451       1.49694270       6.13963264
        52    1       17.10586749       6.20456249       8.67498686
        53    1        7.55460330       0.41489548       2.49885101
        54    1       18.23752460       6.79559124       2.43935549
        55    1       14.93628648      13.01846430       7.37756199
        56    1        4.25336519       6.63776854       7.43705751
        57    1       15.96253970      11.88611694       1.40264817
        58    1        4.15120384       4.83144166       3.53555833
        59    1        6.52835009       1.54724284       8.47376483
        60    1       18.33968595       8.60191812       6.34085467
        61    1       10.00236533      10.36533126       1.80037133
        62    1        8.31602292       9.35811258       3.13783517
        63    1       12.48852446       3.06802852       8.07604167
        64    1       14.17486687       4.07524720       6.73857783
        65    1       11.02222864      12.19356247       2.99719505
        66    1        6.22280052       9.32695980       1.94101145
        67    1       11.46866115       1.23979731       6.87921795
        68    1       16.26808927       4.10639998       7.93540155
        69    1        2.92461913       1.02791485       9.84765289
        70    1       20.50552798      11.52864097       4.96696662
        71    1       19.56627066      12.40544493       0.02876011
        72    1        1.98536181       1.90471881       4.90944639
        73    1        3.87229163       1.14055160       1.72335506
        74    1       19.34446285      10.38177079       3.21485144
        75    1       18.61859816      12.29280818       8.15305794
        76    1        3.14642694       3.05158899       6.66156156
        77    1        2.88479233       2.90157827       2.97348179
        78    1       18.26213826      12.08616021       1.96472471
        79    1       19.60609746      10.53178151       6.90293122
        80    1        4.22875153       1.34719957       7.91168829
        81    1       11.07708701       6.65067732       2.46910325
        82    1       11.41380278       6.78268246       7.40730975
