 # V4 Co6 O16
 
          26  atoms
           3  atom types
 
      0.00000000       6.56909110  xlo xhi
      0.00000000       5.37875475  ylo yhi
      0.00000000       8.43496400  zlo zhi
