 # Er2 V2 O8
 
          12  atoms
           3  atom types
 
      0.00000000       5.96572486  xlo xhi
      0.00000000       5.36088083  ylo yhi
      0.00000000       5.05987228  zlo zhi
     -2.61740899      -1.67415794      -2.68044042  xy xz yz
 
Masses
 
           1   167.25900000    # Er
           2   50.94150000    # V 
           3   15.99900000    # O 
 
Atoms # atomic
 
         1    1        0.00000000       0.00000000       0.00000000
         2    1       -1.30870449       2.68044042       2.52993614
         3    2        2.98286243       0.00000000       2.52993614
         4    2        1.67415794       2.68044042       0.00000000
         5    3        0.20483574      -1.44828484       4.11891819
         6    3        3.18769817      -1.44828484       3.47089023
         7    3        1.59154427      -0.45135400       1.58898205
         8    3        0.28283977       2.22908642       0.94095409
         9    3       -0.20483574       1.44828484       4.11891819
        10    3        2.77802669       1.44828484       3.47089023
        11    3        4.37418059       0.45135400       1.58898205
        12    3        3.06547610       3.13179442       0.94095409
