 # Rb2 Co2 Br6
 
          10  atoms
           3  atom types
 
      0.00000000       7.49246473  xlo xhi
      0.00000000       6.48866437  ylo yhi
      0.00000000       6.21832700  zlo zhi
