 # Tb4 Ti4 O14
 
          22  atoms
           3  atom types
 
      0.00000000       7.21188388  xlo xhi
      0.00000000       6.24567465  ylo yhi
      0.00000000       5.88847853  zlo zhi
