 # Cr2 Ge2 Te6
 
          10  atoms
           3  atom types
 
      0.00000000       8.29597005  xlo xhi
      0.00000000       6.28432581  ylo yhi
      0.00000000       5.77336600  zlo zhi
