 # Co40 O40
 
          80  atoms
           2  atom types
 
      0.00000000      10.26261537  xlo xhi
      0.00000000      10.15771464  ylo yhi
      0.00000000      10.01028808  zlo zhi
     -1.05511141      -0.01643022       0.67347880  xy xz yz
 
Masses
 
           1   58.93319500    # Co
           2   15.99900000    # O 
 
Atoms # atomic
 
         1    1        1.88348150       8.44268519       1.52784544
         2    1        1.92937353       4.01462462       5.34034955
         3    1        3.51240207       1.14315783       0.55207389
         4    1        4.79953168       5.64261109       5.33499424
         5    1        8.19816926      10.01276710       6.58001682
         6    1        6.49861385       0.84931309       6.77227381
         7    1        3.45639523       0.44870809       5.61801602
         8    1        5.85518406       6.45182362       9.82474068
         9    1       -0.30378469       4.52528431       7.33807081
        10    1        1.15782871       5.72320825       0.24542604
        11    1        0.26978321       0.32002270       1.58077054
        12    1        7.23954041       3.14015236       5.60981529
        13    1        0.04059598       1.82900357       4.59169812
        14    1        8.54707623       3.86993253       0.50875317
        15    1        7.73178833       5.95259509       6.39012365
        16    1        2.77256267       7.98530924       5.51905571
        17    1        5.55586992       3.25880142       8.87874003
        18    1        4.25761371       9.92256896       3.74322730
        19    1        7.04397565       9.39601536       9.67949511
        20    1        1.54131042       9.36510667       8.22895451
        21    1        2.88730461       6.15567119       7.79304581
        22    1        0.06786243       7.24935868       5.68994875
        23    1        5.34278565       7.59169313       2.67289006
        24    1        4.38065585       9.41335897       0.25997849
        25    1        9.38072457       7.08937652       2.25761497
        26    1        1.48068462       3.52853460       9.40359305
        27    1        9.05105795       1.75193824       8.73280104
        28    1        2.26892927       6.35978980       3.46371313
        29    1        6.72838584       4.90948400       2.78949360
        30    1        1.09546806       1.15072242       7.08458098
        31    1        3.56221560       2.84467485       7.10268239
        32    1        7.33016759       8.01588903       4.78059866
        33    1        0.96923454       9.45943958       3.86389092
        34    1        5.87889836       2.56581436       1.58170770
        35    1        4.72169189       2.84516605       3.94138076
        36    1        7.87922024       0.71289277       3.66504025
        37    1        9.71963453       4.79802657       3.91604582
        38    1        2.16577065       2.89536949       2.37180382
        39    1        9.15978404       7.81136123       8.67617494
        40    1        5.00882559       8.09978921       7.11789912
        41    2        8.93636517       7.13197261       4.17482998
        42    2        6.82517478      10.44507585       8.01373362
        43    2       -0.48706738       9.47277720       7.74941386
        44    2        0.91266099       3.38559746       3.69702702
        45    2        5.83276390       8.67174610       1.06453658
        46    2        5.50243398       1.14511373       0.24061679
        47    2        1.62612124       1.64846328       0.93449162
        48    2        5.64583536       5.97267793       1.75451631
        49    2        8.55715572       4.66752281       2.30039834
        50    2        5.89269696       2.68178564       7.03720860
        51    2        6.09969980       1.54123846       3.30107048
        52    2        2.59489814       9.87402012       2.82336311
        53    2        0.07513903       8.81106573       2.26892569
        54    2        6.04824435       9.05074401       3.82607025
        55    2        1.31671979       0.39831357       5.22950343
        56    2        8.66418546       4.43958320       5.65207312
        57    2        9.54549758       1.14351748       2.96583013
        58    2        6.15872317       6.92897675       6.06120511
        59    2        3.98668068       2.98155421       2.07536966
        60    2        9.49883000       3.56739603       9.13680656
        61    2        3.47118457       4.74069123       6.48861338
        62    2        3.42622559       2.40233119       5.26006283
        63    2        2.49935278       9.87240420       9.87024505
        64    2        4.18491536       9.62819807       6.04268017
        65    2        0.78208769       2.99578798       6.67514488
        66    2       -0.48790557       6.62322147       0.43061296
        67    2        8.33978120      10.01482447       0.11723769
        68    2        5.98519186       4.29200613       4.44790404
        69    2        9.33934427       6.44356058       7.27828576
        70    2        1.72917212       7.77395144       7.01772377
        71    2        3.90452812       7.06943811       4.18295033
        72    2        3.47876441       3.24723767       8.92687380
        73    2        1.37202840       5.33508094       8.75914722
        74    2        2.14052990       6.50709809       1.63420856
        75    2        8.28086108       1.34599670       5.55702904
        76    2        7.19578417       7.71133612       9.01709983
        77    2        6.58603306       3.81928912       0.06881653
        78    2        3.03050712       1.03288700       7.48685392
        79    2        1.04866428       5.77202301       4.81152775
        80    2        4.42427661       7.02294174       8.55262186
