 # Co2 O2
 
           4  atoms
           2  atom types
 
      0.00000000       3.02407964  xlo xhi
      0.00000000       2.60732448  ylo yhi
      0.00000000       5.00235115  zlo zhi
