 # Co4 O4
 
           8  atoms
           2  atom types
 
      0.00000000       4.21412297  xlo xhi
      0.00000000       4.50176728  ylo yhi
      0.00000000       4.20138578  zlo zhi
