 # Co4 O4
 
           8  atoms
           2  atom types
 
      0.00000000       4.59788059  xlo xhi
      0.00000000       4.59789243  ylo yhi
      0.00000000       4.60004351  zlo zhi
      0.01015753       2.28612028      -2.29126362  xy xz yz
 
Masses
 
           1   58.93319500    # Co
           2   15.99900000    # O 
 
Atoms # atomic
 
         1    1        0.01081778       4.59653028       0.00067621
         2    1        2.29644411       0.00317345       2.30070716
         3    1        2.30470690       2.29757484       0.00065781
         4    1        4.60047464       2.30208974       2.30068416
         5    2        5.73781774      -1.14278349       3.44937023
         6    2        1.14912163       1.15258809       1.14933927
         7    2        3.44410568       1.15617881       3.44936563
         8    2        3.45317484       3.45137567       1.14933467
