 # Co40 O40
 
          80  atoms
           2  atom types
 
      0.00000000      10.04904476  xlo xhi
      0.00000000      10.11684450  ylo yhi
      0.00000000      10.27138009  zlo zhi
      1.06924828       1.08211883      -0.94052403  xy xz yz
 
Masses
 
           1   58.93319500    # Co
           2   15.99900000    # O 
 
Atoms # atomic
 
         1    1        4.35926022       8.11546322       0.74626681
         2    1        1.34437470       2.80440791       7.42015508
         3    1        2.75846078       0.46160456       0.46369231
         4    1        5.61240535       5.53842145       2.66010882
         5    1       10.57621237      -0.48034988       5.46703675
         6    1        7.72898178       3.55106418       5.11312464
         7    1        1.26165376      -0.10565539       8.75546151
         8    1        9.01659917       6.76497483       9.19383816
         9    1        9.07462462       2.23239338       6.88818059
        10    1        2.54333747       5.48949868       1.28362752
        11    1        2.17168334       0.33690665       3.50361890
        12    1        7.75370702       4.30808923       8.41722907
        13    1        4.15377524       8.91833960       6.40743891
        14    1        7.47410784       0.53973527       0.37473590
        15    1        9.70545465       5.60261154       6.46299147
        16    1        3.70529267       5.89964842       5.84280667
        17    1        5.90842343       1.48753111       7.68976577
        18    1        5.37178297       0.57780684       4.73802874
        19    1        9.01898958       9.06032340       6.56413488
        20    1        4.65130226       4.56890518       8.85948070
        21    1        5.47366002       3.55382785       0.30994937
        22    1        9.69799205       5.76742840       2.27972901
        23    1        7.01230690       8.82768709       2.07534878
        24    1        6.99992790       8.36451100       8.79666248
        25    1        1.21005586       7.72223729       3.61088056
        26    1       11.09783310       4.03997598       9.75429930
        27    1       10.29230151       8.28932705       0.44971255
        28    1        6.56474968       1.91265040       2.70642874
        29    1        1.80865598       4.63114865       4.58950417
        30    1        2.94614672       1.85707122       9.71636976
        31    1        3.36265276       1.85022431       6.42002413
        32    1        8.11397433       7.21486528       4.14922300
        33    1        4.84286933       8.16355377       3.84933630
        34    1        7.82241901       3.93783115       1.80396567
        35    1        5.09100848       3.55237306       5.17433827
        36    1        8.48951483       0.22916637       3.93923357
        37    1       10.23158840       2.53712038       2.66527451
        38    1        3.45640224       2.98101192       2.51151102
        39    1       11.52963774       7.14254093       7.73073501
        40    1        6.41496642       6.12331333       6.59950417
        41    2        9.68552713       4.07673249       1.27037323
        42    2        9.01732868       0.59493569       6.09425488
        43    2        5.18211901       8.44617141       9.38499511
        44    2        1.79572837       3.29303010       3.41144333
        45    2        7.25592969       9.14688158       0.06450488
        46    2        6.90027351       2.46392935       0.73243270
        47    2        2.98775435       3.78306701       9.72966884
        48    2        8.26445283       2.73489033       3.45257517
        49    2        2.25327953       2.07642476       1.20615676
        50    2        6.31634578       2.15249511       5.80993363
        51    2        6.80347217       8.83517475       4.08774571
        52    2        4.20990114       9.60944163       2.10056851
        53    2        2.83125496       8.49859210       4.37649968
        54    2        7.71142636       5.70105018       2.67636061
        55    2        7.22568861       6.15298579       8.44619683
        56    2        1.67650206       5.92269450       6.05949674
        57    2        7.31760517       0.17020489       2.35231973
        58    2        9.64759187       8.44770790       4.73046664
        59    2        4.90102429       2.22071458       3.59524998
        60    2        6.48494029      -0.35639534       7.59919469
        61    2        4.92531085       4.77123998       6.91063793
        62    2        2.32770591       3.35073798       5.96468060
        63    2        3.27894941       6.76910883       0.07015692
        64    2        5.07035298       7.36102539       5.80264311
        65    2        1.05803985       1.78943358       8.94867860
        66    2        1.51339342       5.82760763       3.10549754
        67    2       11.33175746       9.07321943      10.00839527
        68    2        8.01301701       5.50538487       5.47324714
        69    2        9.52692210       3.89201944       7.68067518
        70    2        9.60163647       7.36852501       7.40398197
        71    2        4.48670554       5.05916557       4.18865247
        72    2        3.93719857       1.34295563       8.07445863
        73    2        4.33492453       4.45553840       1.49677283
        74    2        5.59374730       7.39270718       2.10510805
        75    2       10.35094907       0.76336454       3.57981046
        76    2        9.94016784       7.67111297       2.14611643
        77    2       10.86524922       5.98578506       9.39244977
        78    2        3.41573698       0.35707243       5.21866831
        79    2        2.37922760       8.84463806       7.21126069
        80    2        6.27508883       3.14929924       8.79964416
