 # Cs6 Ni6 F18
 
          30  atoms
           3  atom types
 
      0.00000000       6.10916741  xlo xhi
      0.00000000       5.29069451  ylo yhi
      0.00000000      14.71554900  zlo zhi
     -3.05458311       0.00000000       0.00000000  xy xz yz
 
Masses
 
           1   132.90545190    # Cs
           2   58.69340000    # Ni
           3   18.99840320    # F 
 
Atoms # atomic
 
         1    1        0.00000000       0.00000000       3.67888725
         2    1        0.00000000       0.00000000      11.03666175
         3    1       -0.00000266       3.52713144       5.97501322
         4    1        3.05458696       1.76356307       8.74053578
         5    1        3.05458696       1.76356307      13.33278772
         6    1       -0.00000266       3.52713144       1.38276128
         7    2        0.00000000       0.00000000       7.35777450
         8    2        0.00000000       0.00000000       0.00000000
         9    2       -0.00000266       3.52713144       9.61822998
        10    2        3.05458696       1.76356307       5.09731902
        11    2        3.05458696       1.76356307       2.26045548
        12    2       -0.00000266       3.52713144      12.45509352
        13    3        1.75151996       2.51588925       3.67888725
        14    3        3.05458679       0.25891072       3.67888725
        15    3        4.35765412       2.51588925       3.67888725
        16    3        1.30306434       2.77480526      11.03666175
        17    3       -0.00000249       5.03178380      11.03666175
        18    3       -1.30306983       2.77480526      11.03666175
        19    3        4.59163200       0.87614959       6.19409832
        20    3        3.05458716       3.53839004       6.19409832
        21    3        1.51754172       0.87614959       6.19409832
        22    3       -1.53704770       4.41454492       8.52145068
        23    3       -0.00000286       1.75230448       8.52145068
        24    3        1.53704258       4.41454492       8.52145068
        25    3       -1.53704770       4.41454492      13.55187282
        26    3       -0.00000286       1.75230448      13.55187282
        27    3        1.53704258       4.41454492      13.55187282
        28    3        4.59163200       0.87614959       1.16367618
        29    3        3.05458716       3.53839004       1.16367618
        30    3        1.51754172       0.87614959       1.16367618
