 # Cs2 Ni2 F6
 
          10  atoms
           3  atom types
 
      0.00000000       6.33681545  xlo xhi
      0.00000000       5.48784348  ylo yhi
      0.00000000       5.28883600  zlo zhi
     -3.16840718       0.00000000       0.00000000  xy xz yz
 
Masses
 
           1   132.90545190    # Cs
           2   58.69340000    # Ni
           3   18.99840320    # F 
 
Atoms # atomic
 
         1    1       -0.00000280       3.65856415       3.96662700
         2    1        3.16841108       1.82927933       1.32220900
         3    2        0.00000000       0.00000000       0.00000000
         4    2        0.00000000       0.00000000       2.64441800
         5    3        1.82464529       4.71202156       1.32220900
         6    3        3.16840812       3.93619964       3.96662700
         7    3        0.00000016       1.55164384       1.32220900
         8    3        4.99305262       0.77582192       3.96662700
         9    3        1.34376298       0.77582192       3.96662700
        10    3       -1.82464435       4.71202156       1.32220900
