 # Ni2 O2
 
           4  atoms
           2  atom types
 
      0.00000000       2.98307704  xlo xhi
      0.00000000       2.58347519  ylo yhi
      0.00000000       4.86400300  zlo zhi
