 # Mn2 P2 S6
 
          10  atoms
           3  atom types
 
      0.00000000       6.06739945  xlo xhi
      0.00000000       5.25487629  ylo yhi
      0.00000000       7.06912884  zlo zhi
     -3.03313132      -0.99881396      -1.72987655  xy xz yz
 
Masses
 
           1   54.93804500    # Mn
           2   30.97376200    # P 
           3   32.06000000    # S 
 
Atoms # atomic
 
         1    1        3.03917762       1.74844102       0.00001414
         2    1       -0.00444738       3.50605872       0.00000000
         3    2        2.03493757       3.52424484       5.96576507
         4    2        0.00041641       0.00083360       1.10332135
         5    3       -0.00981774      -0.01705980       5.45630003
         6    3        2.04520617       3.54214536       1.61282175
         7    3        0.05969208       3.52590515       5.45442671
         8    3        3.02367116       1.81435503       5.45438429
         9    3       -0.98834740       1.71075513       1.61476576
        10    3        1.97558718      -0.00079851       1.61471627
