 # Ca2 Ir2 O6
 
          10  atoms
           3  atom types
 
      0.00000000       5.58537380  xlo xhi
      0.00000000       2.70080532  ylo yhi
      0.00000000       7.49632000  zlo zhi
