 # Ca2 Ir2 O6
 
          10  atoms
           3  atom types
 
      0.00000000       6.54298336  xlo xhi
      0.00000000       3.51867011  ylo yhi
      0.00000000       5.59169900  zlo zhi
