 # Ca2 Ir2 O6
 
          10  atoms
           3  atom types
 
      0.00000000       5.18882062  xlo xhi
      0.00000000       3.05737252  ylo yhi
      0.00000000       7.38364000  zlo zhi
