 # Cs2 Ni2 F6
 
          10  atoms
           3  atom types
 
      0.00000000       7.42974619  xlo xhi
      0.00000000       6.43434883  ylo yhi
      0.00000000       5.42097000  zlo zhi
