 # Cs3 Ni3 F9
 
          15  atoms
           3  atom types
 
      0.00000000       8.34991789  xlo xhi
      0.00000000       5.77794712  ylo yhi
      0.00000000       5.24562200  zlo zhi
