 # Tm2 V2 O8
 
          12  atoms
           3  atom types
 
      0.00000000       5.93993234  xlo xhi
      0.00000000       5.34199939  ylo yhi
      0.00000000       5.03539648  zlo zhi
     -2.59727526      -1.67132854      -2.67099969  xy xz yz
 
Masses
 
           1   168.93421000    # Tm
           2   50.94150000    # V 
           3   15.99900000    # O 
 
Atoms # atomic
 
         1    1        0.00000000       0.00000000       0.00000000
         2    1       -1.29863763       2.67099969       2.51769824
         3    2        2.96996617       0.00000000       2.51769824
         4    2        1.67132854       2.67099969       0.00000000
         5    3        0.28000880       2.21981175       0.94012363
         6    3        1.57864384      -0.45118260       1.57757461
         7    3        3.17256017      -1.44854991       3.45782187
         8    3        0.20259994      -1.44854991       4.09527285
         9    3        3.06265087       3.12218229       0.94012363
        10    3        4.36128591       0.45118794       1.57757461
        11    3        2.76736623       1.44854991       3.45782187
        12    3       -0.20259400       1.44854991       4.09527285
