 # Zn4 Cr8 O16
 
          28  atoms
           3  atom types
 
      0.00000000       2.94625200  xlo xhi
      0.00000000       9.00905900  ylo yhi
      0.00000000      10.57362600  zlo zhi
 
Masses
 
           1   65.38000000    # Zn
           2   51.99610000    # Cr
           3   15.99900000    # O 
 
Atoms # atomic
 
         1    1        0.73656300       2.16501201       8.95005630
         2    1        2.20968900       6.84404699       1.62356970
         3    1        0.73656300       6.66954151       6.91038270
         4    1        2.20968900       2.33951749       3.66324330
         5    2        2.20968900       3.71361520       6.35872491
         6    2        0.73656300       0.79091430       1.07191191
         7    2        2.20968900       8.21814470       9.50171409
         8    2        0.73656300       5.29544380       4.21490109
         9    2        0.73656300       5.03064053       9.32254400
        10    2        2.20968900       3.97841847       1.25108200
        11    2        0.73656300       0.52611103       6.53789500
        12    2        2.20968900       8.48294797       4.03573100
        13    3        2.20968900       8.19997343       6.05842336
        14    3        0.73656300       0.80908557       4.51520264
        15    3        2.20968900       3.69544393       9.80201564
        16    3        0.73656300       5.31361507       0.77161036
        17    3        2.20968900       0.29446109       2.25650695
        18    3        0.73656300       8.71459791       8.31711905
        19    3        2.20968900       4.79899059       3.03030605
        20    3        0.73656300       4.21006841       7.54331995
        21    3        2.20968900       5.60525633       5.63459013
        22    3        0.73656300       3.40380267       4.93903587
        23    3        2.20968900       1.10072683      10.22584887
        24    3        0.73656300       7.90833217       0.34777713
        25    3        0.73656300       7.18402185       3.44590242
        26    3        2.20968900       1.82503715       7.12772358
        27    3        2.20968900       6.32956665       8.73271542
        28    3        0.73656300       2.67949235       1.84091058
