 # Al40 O60
 
         100  atoms
           2  atom types
 
      0.00000000      10.01873091  xlo xhi
      0.00000000      10.08293906  ylo yhi
      0.00000000      10.41462582  zlo zhi
     -0.88261282      -0.23809192      -0.62828429  xy xz yz
 
Masses
 
           1   26.98153860    # Al
           2   15.99900000    # O 
 
Atoms # atomic
 
         1    1        6.91026880       5.60286235       5.37680418
         2    1        6.13566857       7.97132960       4.00061198
         3    1        3.96378860       7.95867705       8.01532099
         4    1        7.95471646       5.68266218       0.04027513
         5    1        8.37511370       3.08158225       1.10943822
         6    1        1.96941151       8.33720039       6.20974283
         7    1        1.37495818       5.08766848       5.72737308
         8    1        9.49527933       2.37595748       5.89039135
         9    1        3.57972310       4.26877205       2.48755014
        10    1        7.56952656       2.88997226       8.61364645
        11    1        3.93345852       6.32455628       5.04547681
        12    1        2.00785405       4.86553695       8.80025696
        13    1        6.47139504       2.78877327       4.62309260
        14    1        7.70125664       0.17770294       6.09476234
        15    1        6.91902600       0.10879106       9.88878366
        16    1        8.87359373       8.02755561       6.66050408
        17    1        3.05037085       1.29107765       1.25294572
        18    1       -0.11373205       0.08574902       8.41416887
        19    1        5.35229338       4.98409101       7.97880710
        20    1        4.81782486       0.34586344       4.47941472
        21    1        5.36984928       0.78548789       7.70816326
        22    1        0.61382289       5.61872625       1.78365277
        23    1        9.04118652       5.18593967       7.52492583
        24    1        0.93564578       7.42956763       3.63771757
        25    1        3.08619211       6.50088670       1.03299726
        26    1        3.22782789       2.98538620       5.33369127
        27    1        0.13684066       0.88689520       0.84556368
        28    1        5.58356307       2.15735485       1.86057884
        29    1        6.95869615       7.47474241       8.44285689
        30    1        1.30671929      -0.05870491       4.55644847
        31    1        7.74901859       0.26843582       2.77243047
        32    1        5.84536106       5.47256431       2.02385913
        33    1        3.86478308       9.35000478       1.75186952
        34    1        4.11576951       3.26705446       9.76795765
        35    1        1.06745000       8.67732717       9.51648338
        36    1        6.14895010       8.29697852       0.78859432
        37    1        0.86811566       2.80503815       3.26747502
        38    1        2.37216006       1.86280117       8.19803664
        39    1        9.21004493       8.23600583       1.65424521
        40    1        8.37383686       5.10683077       3.12628196
        41    2        7.50584688       8.75092697       2.02002686
        42    2        1.42318560       1.75782855       1.70333601
        43    2        7.00106587       1.24501228       8.27027946
        44    2       -0.59056279       8.37211980       8.32928103
        45    2        4.78513259       2.17874461       5.10883096
        46    2        8.76704291       3.46124139       7.36201599
        47    2        0.34331336       3.83075195       5.03923897
        48    2        2.22804364       9.75775456       4.96748574
        49    2        6.84181119       2.27294536       0.50789443
        50    2        8.47340915       6.30961996       6.19712061
        51    2        4.13892516       2.58180995       0.73304115
        52    2        9.46502747       0.75073620       6.84854921
        53    2        0.42068945       1.43232619       4.38257265
        54    2        7.45800860       4.58158380       1.65958552
        55    2        1.89443808       6.17086475       9.94200718
        56    2        7.22250320       8.60934612       7.03102377
        57    2        6.55718781       1.52218107       3.29265446
        58    2        8.54358554       3.44772360      10.02692742
        59    2        6.05238476       4.50870198       6.45353672
        60    2        0.18312775       8.70862589       5.77758033
        61    2        4.18708661       0.82681090       2.61570586
        62    2        8.95724746       0.66220000       9.81149286
        63    2        4.35960270       7.80988184       1.03761250
        64    2        6.75048939       8.47804988       9.83097655
        65    2        5.66664743       6.86594252       5.31949645
        66    2        2.49735786       9.80791965       0.47219747
        67    2        7.93432084       5.91684898       8.75679340
        68    2        2.01736929       3.16574614       9.33000472
        69    2        1.77036549       7.22041022       2.12984472
        70    2        1.56804127       0.43383046       8.95336321
        71    2        6.39438460      -0.03809090       1.21577488
        72    2        3.15230822       4.76629492       5.69452452
        73    2        5.32068927       3.70301289       2.82251284
        74    2       -0.29493919       3.89887122       2.28542788
        75    2        7.76568551       1.90163756       5.51137666
        76    2        8.87531856       1.43106929       1.96213946
        77    2       -0.10073600       9.35902451       0.47525885
        78    2        1.71403851       6.77101644       5.07656916
        79    2        4.11890511       5.89089959       3.28010536
        80    2        0.03662286       8.90327190       3.18825648
        81    2        4.62031366       8.91720281       3.51198877
        82    2        4.15737856       1.85396873       8.39883906
        83    2        2.13685689       4.83695029       1.58994198
        84    2        6.07796287       3.81929487       9.13954714
        85    2        3.60275767       7.61935699       6.29879309
        86    2        4.42628564       5.10605675       0.84196251
        87    2        0.83152422       5.30461431       7.44642351
        88    2        6.57233687       6.60575272       0.64682669
        89    2        5.32324071       6.77356586       8.26057636
        90    2        6.96086797       6.43032302       3.32750211
        91    2        2.14467940       8.34856658       8.06028905
        92    2        5.80052911       0.09419266       6.10242979
        93    2        7.56764651       4.22989773       4.42100929
        94    2        3.73800285       4.63659428       8.47045513
        95    2        2.13700088       2.20879090       6.49534520
        96    2       -0.23753579       6.14512467       3.38977272
        97    2        4.56771673       9.44436346       8.78884097
        98    2        9.33410255       6.56019409       0.91600665
        99    2        2.61688194       3.16945675       3.62031775
       100    2        7.08904001       9.44567895       4.44062023
