 # Al10 O15
 
          25  atoms
           2  atom types
 
      0.00000000       2.89850315  xlo xhi
      0.00000000       2.51095009  ylo yhi
      0.00000000      45.48786324  zlo zhi
