 # Al12 O18
 
          30  atoms
           2  atom types
 
      0.00000000       2.91370900  xlo xhi
      0.00000000       7.11443800  ylo yhi
      0.00000000      13.49418000  zlo zhi
      0.00000000       0.00000000       3.08504600  xy xz yz
 
Masses
 
           1   26.98153860    # Al
           2   15.99900000    # O 
 
Atoms # atomic
 
         1    1        0.72842725       5.96312302       0.37573195
         2    1        0.72842725       3.46586208       1.52137434
         3    1        2.18528175       6.36476674       2.87065739
         4    1        2.18528175       2.24733716       4.01602990
         5    1        0.72842725       4.59188321       5.56319161
         6    1        0.72842725       7.26428915       5.36488114
         7    1        2.18528175       2.93519485       8.12929886
         8    1        2.18528175       5.60760079       7.93098839
         9    1        0.72842725       7.95214684       9.47815010
        10    1        0.72842725       3.83471726      10.62352261
        11    1        2.18528175       6.73362192      11.97280566
        12    1        2.18528175       4.23636098      13.11844805
        13    2        2.18528175       4.68701800       0.02812187
        14    2        2.18528175       2.75649206       2.26401304
        15    2        2.18528175       7.06209355       1.04782308
        16    2        0.72842725       5.24019645       2.16314404
        17    2        0.72842725       3.18840835       4.45098780
        18    2        0.72842725       7.51835139       3.46527844
        19    2        2.18528175       5.63352087       4.65560005
        20    2        2.18528175       8.27499974       5.48906808
        21    2        2.18528175       4.04682622       6.68793151
        22    2        0.72842725       6.15265778       6.80624849
        23    2        0.72842725       1.92448426       8.00511192
        24    2        0.72842725       4.56596313       8.83857995
        25    2        2.18528175       2.68113261      10.02890156
        26    2        2.18528175       7.01107565       9.04319220
        27    2        2.18528175       4.95928755      11.33103596
        28    2        0.72842725       3.13739046      12.44635692
        29    2        0.72842725       7.44299194      11.23016696
        30    2        0.72842725       5.51246600      13.46605813
