 # Al40 O60
 
         100  atoms
           2  atom types
 
      0.00000000       9.97746151  xlo xhi
      0.00000000      10.42097409  ylo yhi
      0.00000000      10.43825628  zlo zhi
      0.32416681       0.10104670      -0.31542132  xy xz yz
 
Masses
 
           1   26.98153860    # Al
           2   15.99900000    # O 
 
Atoms # atomic
 
         1    1        7.93667027       4.11210866       6.90741537
         2    1        7.05217067       6.66941411       6.47967713
         3    1       10.02486196       6.58502160       7.95117951
         4    1        7.12714202       4.48800728       0.01627345
         5    1        8.23560512       8.07041299       4.10695824
         6    1        1.29558519       4.19815395       7.04840406
         7    1        3.80160026       4.27852683       3.38026719
         8    1        9.12187458       1.95799858       0.05433008
         9    1        4.19985666       6.45623389       0.88712110
        10    1        7.23653603       9.30142238       8.16316380
        11    1        4.22903706       7.35253900       3.58440191
        12    1        4.40106241       0.15638577       8.18126321
        13    1        6.68707187       2.26351014       2.19831681
        14    1        9.97419590       9.40047172       6.40364539
        15    1        5.41478157       6.81651556       8.56960163
        16    1        3.40164188       8.89183020      10.17450075
        17    1        1.89101749       0.92604844       6.06048114
        18    1        2.20346370       1.66092078      10.29375616
        19    1        2.73694143       8.51110985       7.50584091
        20    1        5.81443883       9.40034614       5.28964159
        21    1        6.08891029       2.28659283       5.00468857
        22    1        1.45808141       7.30586650       1.85652206
        23    1        9.48301238       5.41617840       5.01970713
        24    1        1.27782524      10.03860450       3.43415135
        25    1        4.42403656      10.18889256       2.41146674
        26    1        9.69559935       1.86071787       7.84681532
        27    1        9.02795979       9.90197116       1.71712823
        28    1        7.65236647       4.95570360       3.24924432
        29    1        6.54985545       2.40603170       8.43270828
        30    1        3.95895579       5.79675009       6.13131066
        31    1        7.86463974       0.40959202       4.12096158
        32    1        6.40576831      10.38392459       0.60323643
        33    1        7.05854581       7.39061469       1.41800831
        34    1        3.49925328       3.05840209       7.90715210
        35    1        2.09628640       1.95775869       2.70310400
        36    1       10.12595104       8.91387589       9.46950593
        37    1        4.20034539       3.48001192       0.47939091
        38    1        0.63143900       4.13674673       2.19412993
        39    1        9.66786486       5.34673536      10.28550921
        40    1        1.50464865       7.35568825       5.12064330
        41    2        2.32967089       0.03329380       2.27889462
        42    2        3.18789439       4.65286000       7.20436862
        43    2        8.68156637       5.96503116       6.92695015
        44    2        6.96638752       7.54927905       8.13054122
        45    2        9.58565646       3.37265400       6.83088176
        46    2        8.17985767       1.63571102       8.76799280
        47    2        9.39173744       4.50891965       3.43122478
        48    2        0.25532284       0.61897876       6.71976203
        49    2        4.76880623       3.05349640       4.15764495
        50    2        2.09735135       3.76485432       3.22699267
        51    2        3.22200450       0.28184126       9.61505792
        52    2        1.33606802       9.19408517       5.00559545
        53    2        6.09429675       0.53179420       4.84116775
        54    2        0.68684743       5.04962197       8.58922868
        55    2        0.90132356       7.84230632       6.97899550
        56    2        6.84611598       2.73381415       6.53907905
        57    2        4.61749000       9.08992888       3.92209150
        58    2        3.29613005       2.22577589       1.34534249
        59    2        7.22650161       4.15155591       8.56025177
        60    2        1.14727597       5.40805800       5.71400932
        61    2        5.45867286       0.91733979       2.08190061
        62    2        0.69603036       1.77910902       9.32311085
        63    2        9.56461144       0.06072096       0.23182209
        64    2        9.02511526       9.29504263       8.05378517
        65    2        4.82892067       1.92023457       7.85010473
        66    2        7.75651795       9.41098889       3.01831126
        67    2        6.71108731       7.81032845       5.17396640
        68    2        7.59590646       5.02076387       5.12502277
        69    2        2.40097368       7.18520130       3.40844944
        70    2        4.78194120       9.42486506       0.82954827
        71    2        7.55516117       8.96243084       0.64621460
        72    2        6.76133573       4.06702721       1.99918902
        73    2        7.46221867       2.21195941       3.80655430
        74    2        9.80464470       7.14611270       9.62587321
        75    2        9.69120641       7.13082140       4.59644096
        76    2        0.77247120       2.45985573       1.43311132
        77    2        0.43019428       8.68207902       2.18994408
        78    2        4.31037538       5.70836219       4.37828819
        79    2        3.09306288       3.15122375       9.61506491
        80    2        7.74045112       6.72310650       2.92897899
        81    2        4.18254196       8.11753364       8.63872199
        82    2        7.77316637       6.13131646       0.34476037
        83    2        5.22075154       5.77056271       9.92533613
        84    2        7.66632944       1.30152384       1.06397365
        85    2        3.29323695      10.18037358       6.93346644
        86    2        2.82546600       7.59740487       0.71714495
        87    2        5.29173548       7.13949511       2.10987566
        88    2        8.60473585       9.53380193       5.34225374
        89    2        3.97935622       4.83844756       1.63538969
        90    2        8.89322088       3.89320195       0.22000734
        91    2        1.87876497       8.82731346       9.10193443
        92    2        3.16813479       7.38513035       6.08496574
        93    2        5.91896912       2.85523087      10.24472798
        94    2        5.87178839       9.68446847       7.02559720
        95    2        2.08932385       2.49130214       6.96814566
        96    2        0.74050440       5.72211987       1.28898019
        97    2        6.00529540      -0.05300058       9.29214639
        98    2        5.48941356       5.95298379       6.97274079
        99    2        1.84511845       1.21456812       4.33437830
       100    2        9.41778718       0.50570274       3.14178278
