 # Al8 O12
 
          20  atoms
           2  atom types
 
      0.00000000       4.84693300  xlo xhi
      0.00000000       4.98540400  ylo yhi
      0.00000000       7.08994100  zlo zhi
 
Masses
 
           1   26.98153860    # Al
           2   15.99900000    # O 
 
Atoms # atomic
 
         1    1        1.22216385       0.15212462       2.76787752
         2    1        1.22216385       2.34057738       4.32206348
         3    1        1.20130265       2.64482662       0.77709298
         4    1        1.20130265       4.83327938       6.31284802
         5    1        3.62476915       4.83327938       4.32206348
         6    1        3.62476915       2.64482662       2.76787752
         7    1        3.64563035       2.34057738       6.31284802
         8    1        3.64563035       0.15212462       0.77709298
         9    2        0.51872362       0.50839156       4.63683559
        10    2        0.51872362       1.98431044       2.45310541
        11    2        1.90474288       3.00109356       5.99807591
        12    2        1.90474288       4.47701244       1.09186509
        13    2        4.32820938       4.47701244       2.45310541
        14    2        4.32820938       3.00109356       4.63683559
        15    2        2.94219012       1.98431044       1.09186509
        16    2        2.94219012       0.50839156       5.99807591
        17    2        0.23945788       1.24635100       0.00000000
        18    2        2.18400862       3.73905300       3.54497050
        19    2        4.60747512       3.73905300       0.00000000
        20    2        2.66292438       1.24635100       3.54497050
