 # Al40 O60
 
         100  atoms
           2  atom types
 
      0.00000000      10.21921842  xlo xhi
      0.00000000      10.28511787  ylo yhi
      0.00000000      10.61700710  zlo zhi
      0.78817001      -1.17330560       0.29392236  xy xz yz
 
Masses
 
           1   26.98153860    # Al
           2   15.99900000    # O 
 
Atoms # atomic
 
         1    1        3.58172026       5.98951794       4.05516480
         2    1        3.69504043       0.26568752       6.74780810
         3    1        9.31467515       7.44475937       5.89515498
         4    1        9.32776792       6.76580040      10.01827447
         5    1        3.46933074       9.14752637       9.28051935
         6    1        8.98853095       1.58330631       7.01363046
         7    1        3.04808611       3.20743401       5.71276393
         8    1        9.25593739      10.27500385      10.29531932
         9    1        2.49703210       7.87296957       0.57651368
        10    1        0.22319276       4.25385723       7.30579181
        11    1        8.32015702       6.95244673       2.12161776
        12    1        7.24239080       2.37636765       0.90440306
        13    1        7.83020751      10.01815781       2.44154131
        14    1        4.45553749       7.47054733       6.64236816
        15    1        0.72799346       9.10802878       8.19121410
        16    1        9.99011281       1.88349702       1.11606870
        17    1        8.07787724       4.08473021       9.41172230
        18    1        8.35181618       2.22728567       4.05855226
        19    1        4.34351109       0.54920447       3.83806675
        20    1        4.46959513       3.18506324       0.15218163
        21    1        4.80294602       3.19978881       3.09745598
        22    1        7.80387245       8.77132816       8.17261937
        23    1        5.31392365       8.05638617       3.43328062
        24    1        2.73844576       9.48298559       2.57590771
        25    1        1.57692087       6.28797952       6.51928933
        26    1        1.03907572       1.42053556       4.68155792
        27    1        7.55814588      10.32195634       5.54546623
        28    1        5.07146974       5.57103370       1.73568456
        29    1        7.30899052       5.44913135       4.11422063
        30    1        6.25010099       6.56030472      10.01750006
        31    1        1.54743107       4.63957576       1.04550924
        32    1        7.56312467       5.82408296       7.43908376
        33    1        2.60243955       5.97480395       8.92356920
        34    1        1.96881215       3.10027798       3.09379842
        35    1        0.87580806       1.56442810       9.26241682
        36    1        0.42813644       6.00599701       3.98921853
        37    1        4.13676082       2.92459788       8.44506302
        38    1       10.44615845       9.04785099       2.96123946
        39    1        5.15590751       0.61623748       9.85243214
        40    1        6.14152499       2.81948838       5.76314386
        41    2        6.25274828       9.61733016       3.04928555
        42    2        2.35151633       2.36784326       9.75133923
        43    2        8.09369114       8.85801207       6.38610599
        44    2        6.07702719       7.07762779       7.38159193
        45    2        9.29999181       4.94033805      10.29629662
        46    2        0.10297553       2.47381625       7.86198804
        47    2        2.59966469       1.38095262       5.80396126
        48    2        5.08720645       2.53880049       9.89346889
        49    2        9.58902925       0.11436813       1.44671288
        50    2        4.10972066       6.86364322       2.51441316
        51    2        4.33378226       1.12914045       8.11336394
        52    2        1.47306468      10.25248275       3.70404233
        53    2        7.18400653       1.56507736       6.52336096
        54    2        7.45025747       3.65008019       4.82363460
        55    2        5.77838305      10.22176634       5.58064154
        56    2        6.17356939       5.98116105       0.49825221
        57    2        8.83630596       8.61903558       2.22602414
        58    2        7.56944956       2.85382050      10.51618396
        59    2        6.72700679       5.19421817       8.98933689
        60    2        3.49066010       1.88682115       2.83737338
        61    2        8.86176163       6.72214176       0.36757438
        62    2        2.09313716      10.17443697       8.69238918
        63    2        1.75909976       6.28478119       0.41490489
        64    2        5.69159061       3.07691109       1.51548869
        65    2        3.97791264       8.99316879       7.38802010
        66    2        3.22346278       6.42973769       7.29621070
        67    2        7.71701208       6.24916611       5.71540247
        68    2        1.32727800       4.89601940       2.84101257
        69    2        1.84234412       4.10004187       6.51882282
        70    2        2.57178297       7.62948149       9.71257335
        71    2        6.88477859       0.64204328       0.98920280
        72    2        3.59073021       4.42009927       1.20092981
        73    2       -0.04773695       5.65671226       5.84039214
        74    2        8.57917238       4.26665431       7.66030546
        75    2        6.12196343       7.88302648       8.67768526
        76    2        2.08316303       6.46687069       4.79062633
        77    2        8.55994843       2.48727539       2.33465173
        78    2        4.77008278       7.06659666       4.96962026
        79    2        3.36141472       9.37795254       0.92587861
        80    2        6.80056184       7.01684084       3.08658904
        81    2        1.56606581       8.14448696       2.20760172
        82    2        1.24395004       2.85435127       1.43533219
        83    2       -0.10582016       8.68250043       9.86437808
        84    2        4.66123943       3.35143098       6.68375601
        85    2        9.61350815       1.83841736       5.33454866
        86    2        4.00198683       9.39570816       3.77639171
        87    2        7.66553133       0.48285560       4.02066409
        88    2        5.65862732       4.82711144       3.31684294
        89    2        0.96562610       5.59971242       8.30973111
        90    2        0.67155884       7.91251606       6.90819009
        91    2        8.58952821       7.11705129       8.33392133
        92    2        9.75321928      10.31188225       7.79494917
        93    2        8.92523316       5.63461987       3.18536925
        94    2        4.86222028       9.58259633      10.15531603
        95    2        3.58138218       4.52175471       9.26361569
        96    2       -0.61326953       1.36584319      10.17525775
        97    2       10.02847077       7.79401289       4.29061466
        98    2        5.43041677       2.05410795       4.32980097
        99    2        3.46179828       4.09115134       4.17769069
       100    2        7.63958060      10.06278089       9.40631453
