 # Al16 O24
 
          40  atoms
           2  atom types
 
      0.00000000       5.62966300  xlo xhi
      0.00000000       4.90584800  ylo yhi
      0.00000000      14.08251500  zlo zhi
     -2.80630800      -0.20592600      -0.00883800  xy xz yz
 
Masses
 
           1   26.98153860    # Al
           2   15.99900000    # O 
 
Atoms # atomic
 
         1    1       -0.06041592       1.62010892       2.38932399
         2    1       -1.44219457       4.10788007       0.48052358
         3    1        1.31755399       4.16878443       0.66310338
         4    1        2.81530959       1.57051774       0.68197395
         5    1       -0.08472801       4.85572722       5.31976862
         6    1        4.14024612       2.41058660       5.30764357
         7    1        2.75123023       3.26425419       3.00005450
         8    1        2.75698658       3.25620977       8.15740947
         9    1        5.26811222       0.04404944      10.67047652
        10    1        2.72761682       4.87350321       5.30078539
        11    1       -0.16801951       1.50796797       7.73324412
        12    1        1.30988669       2.41001354       5.32961230
        13    1        1.96707357       1.00153699       9.88339068
        14    1        1.10784602       2.39691435      12.42055291
        15    1       -0.27576812       3.30257133       9.96108391
        16    1        2.71253142       0.14295263      12.41161051
        17    2       -0.14114708       4.85147551       1.55713185
        18    2        1.43039250       2.49439708       1.88542344
        19    2        2.72066875       1.69181887       4.33390807
        20    2        1.39504469       4.01058070       4.32136055
        21    2        2.71591628       3.24190501       6.38185782
        22    2        4.06395893       2.48332678       1.86628530
        23    2        2.74068638       4.79217851       1.85421658
        24    2       -0.03012243       0.00611980       8.82969466
        25    2        4.21930379       0.82921154       6.31520527
        26    2       -1.59131286       3.99420242       4.30199709
        27    2       -0.02935869       1.76337076      11.00165503
        28    2       -1.38225483       2.46731472       8.70516298
        29    2       -0.09468393       1.58773661       4.20067340
        30    2        1.22370478       0.80980173       6.30320697
        31    2       -0.09524385       3.14844830       6.27290140
        32    2       -0.17304996       3.40793590      13.48388137
        33    2       -1.48129642       4.35527560      11.01238590
        34    2        1.32700641       2.30312154       8.74321393
        35    2        1.27937391       0.84336966      13.53055082
        36    2        1.13762547       4.02159277      11.38260114
        37    2        0.14465631       4.77101181       9.04260820
        38    2        2.55442106       1.68997220      11.41158296
        39    2        3.88660331       0.76368168      13.69837215
        40    2        2.47629267       3.21842810      13.85095620
