 # Al40 O60
 
         100  atoms
           2  atom types
 
      0.00000000      10.35972138  xlo xhi
      0.00000000      10.36240278  ylo yhi
      0.00000000      10.45925433  zlo zhi
      0.20768540       0.00433989      -0.67154773  xy xz yz
 
Masses
 
           1   26.98153860    # Al
           2   15.99900000    # O 
 
Atoms # atomic
 
         1    1        3.70556287       5.23567433       2.72934576
         2    1        3.75145370       0.77245771       4.23000088
         3    1        5.73576533       7.43824908       6.71611679
         4    1        8.13026580       8.48167090       8.66685003
         5    1        3.30007165       9.34115530       7.28484658
         6    1        8.43469223       5.89877525       7.99070955
         7    1        3.38986124       3.59020486       5.51602435
         8    1        1.83429281       9.21982510       0.13546314
         9    1        4.53320045       7.13636525       0.86765759
        10    1        9.11392418       4.82121955       4.79916254
        11    1        7.84574869       7.45360994       4.30734058
        12    1        8.71666880       2.51535492       2.58675653
        13    1        9.68434061       8.93831446       3.05855268
        14    1        3.81079161       8.24716095       4.40631378
        15    1        0.90488382       7.92586988       5.66216482
        16    1        2.79804303       0.48022169       9.75352922
        17    1       10.00278079       3.47506620      10.02864505
        18    1        6.95769703       2.26260896       4.73425335
        19    1        6.55040038      -0.14651639       4.05557472
        20    1        5.72914611       1.48226613       1.71392025
        21    1        0.67434006       0.94868775       2.10055004
        22    1        8.91659971       0.24964900      10.33325891
        23    1        7.17297708       8.46239021       1.65401236
        24    1        4.07572877      10.11394645       1.64841666
        25    1        0.77347901       5.00857851       6.74022181
        26    1        0.87342785       2.48317140       4.77046914
        27    1        7.81116808       9.91892779       6.54510505
        28    1        7.09264254       2.89613206       9.91098095
        29    1        5.72106371       5.32319792       5.11252849
        30    1        8.22848930       5.42828500       1.71052716
        31    1        2.81653248       4.01800507      10.21722698
        32    1        6.32209842       4.08256818       7.44111726
        33    1        3.05859629       6.20044554       7.56709803
        34    1        0.50365988       4.40412899       2.24119898
        35    1        1.27856058       2.29096577       7.58017911
        36    1        9.85519901       7.48390331       0.21795036
        37    1        4.19278807       2.10192074       8.28626622
        38    1        2.08186045       7.26906121       2.53164693
        39    1        5.88046196      -0.13037231       9.51415914
        40    1        0.66418391       9.76294857       8.20661178
        41    2        9.71721187       7.88683190       4.62127635
        42    2        4.41845436       0.38345696       0.05909280
        43    2        6.67094736       9.76461444       7.90619982
        44    2        5.41141824       5.51417137       6.93860855
        45    2        3.31699398       2.32311895       9.81183423
        46    2        0.42916958       1.68285926       6.20964863
        47    2        3.08478486       2.67172192       7.08367632
        48    2        7.68778168       4.38049089       8.51189744
        49    2        9.31654447       1.12741661       1.57790664
        50    2        3.39657906       8.55007410       0.83234934
        51    2        3.97207619       0.35995777       8.20525113
        52    2        0.69859763       9.95980695       3.14966408
        53    2        9.22264768       9.52373753       7.59391201
        54    2        6.21766446       3.51192079       5.75715754
        55    2        6.03805752       9.94485980       2.20108732
        56    2        7.38255819       6.86754049       2.59486601
        57    2        6.95355454       8.63223392       5.52687290
        58    2        9.30182112       3.74043111       1.46776850
        59    2        9.28444533       7.09712223       9.03717803
        60    2        4.11925546       1.49899496       2.41640728
        61    2        9.39093516       5.80085039       0.25205673
        62    2        2.39465155       9.09430429       8.99639562
        63    2        3.02952836       5.39132247       9.12536115
        64    2        8.80495081       2.01509900       9.63787392
        65    2        3.90866222       9.63392436       5.62020679
        66    2        1.27457161       6.74452224       7.02102884
        67    2        5.05423959       7.06440980       5.02468341
        68    2        1.92932107       5.42894548       2.71637462
        69    2        0.56263756       3.81565533       8.25862450
        70    2        4.09019347       7.70188019       7.47005425
        71    2        7.02243722       1.91527214       2.86436637
        72    2        4.02412076       5.32016707       0.96488148
        73    2        4.39870215       4.45418758       4.16122364
        74    2        1.22220468       1.00583529       8.77088562
        75    2        6.06621676       7.79847903       0.44087399
        76    2        2.05650770       7.68578580       4.30144972
        77    2        6.93434100       4.57255834       0.87021362
        78    2        2.69443441       4.98952024       6.29505105
        79    2        1.97811142       0.52848137       0.94100154
        80    2        3.94782837       7.03627811       2.72204709
        81    2        1.09694809       7.75476730       1.02466920
        82    2        0.57814494       2.53099218       2.98743885
        83    2        9.02830344       8.45627414       1.39744560
        84    2        5.79085394       2.76881849       8.48005016
        85    2        9.57026753       5.44110103       3.12226251
        86    2        3.58731550       9.63285972       3.26972178
        87    2        8.51412117       3.17757961       4.28451577
        88    2        5.42928542       1.09088757       4.71422042
        89    2        1.21286434       4.23778039       0.49838567
        90    2        1.47610485       9.29524674       6.67333885
        91    2        0.53139465       4.19335037       5.12175314
        92    2        7.21187479       7.20985907       7.75210655
        93    2        7.45728659       5.77404380       4.89969951
        94    2        7.97482277       9.16329497       3.36831876
        95    2        6.34995032       1.99327687       0.09638558
        96    2       10.44036920       9.37774423       9.92633419
        97    2        9.35592904       5.44653721       6.55461136
        98    2        7.75686973       0.73636114       5.28316453
        99    2        2.68447881       2.21651948       4.60928199
       100    2        7.71462314       9.45474110      10.12906508
