 # Al40 O60
 
         100  atoms
           2  atom types
 
      0.00000000      10.21316288  xlo xhi
      0.00000000      10.38304090  ylo yhi
      0.00000000      10.23308766  zlo zhi
      0.85400493      -0.47887087       0.17893134  xy xz yz
 
Masses
 
           1   26.98153860    # Al
           2   15.99900000    # O 
 
Atoms # atomic
 
         1    1        6.56413450       6.45529285       7.55397434
         2    1        8.84993561       7.44254816       5.65634514
         3    1        2.29801252       0.30391137       6.07961931
         4    1        7.03521165       5.88053046       1.11467151
         5    1        9.83040033       4.48999787       3.26876737
         6    1        1.93681486       7.88085346       5.65124865
         7    1        3.08614522       5.18065305       6.67664661
         8    1        9.78366957       2.57262994       5.17120540
         9    1        4.14417389       4.44530737       1.77359128
        10    1        8.29901391       2.37045584       7.51147991
        11    1        6.19303244       6.29109434       4.38699334
        12    1        2.25473721       6.86120281       8.67912034
        13    1        7.02499825       3.03740646       3.36854233
        14    1        9.65141434      10.07010303       5.65478961
        15    1        8.68394774       8.31520387       0.78233818
        16    1       10.18947966       8.09507717       8.12429061
        17    1        5.30854002       0.24202961       1.97592613
        18    1        0.91160616       1.91279620       7.70782093
        19    1        4.89961483       8.53576851       9.46077607
        20    1        5.17462376       0.90225490       5.06110065
        21    1        6.34002758       3.56810514       8.55238662
        22    1        1.47346690       4.21462261       9.40824513
        23    1        9.60574010       5.15050903       6.40672733
        24    1       10.73311490       8.54012052       3.12914671
        25    1        3.22207671       9.69159512       2.23877179
        26    1        5.64380696       3.91260113       5.64098282
        27    1        8.45974616       0.46834317       9.33517157
        28    1        9.22442928       3.32007570       0.46991710
        29    1        6.80558795       9.97019592       8.14230791
        30    1        5.29398918       8.78197892       5.22064575
        31    1        8.07834396       0.72413466       2.95805818
        32    1        5.03981752       7.44698920       2.20743480
        33    1        7.63239415       8.66218777       3.58544347
        34    1        4.48315944       4.99397869       9.50608890
        35    1        3.70060524       1.73871035       9.62654902
        36    1        2.07827808       9.74474599       9.24042464
        37    1        0.47498864       0.81317382       1.66077047
        38    1        2.36833375       2.39110301       3.93039799
        39    1       10.44828630       6.22720761       0.80909729
        40    1        2.50719960       5.71034565       3.42333570
        41    2        1.82723371       1.01211392       2.84913137
        42    2        3.16347069       3.85712514       3.13494017
        43    2        9.84353974       3.46514118       6.91596813
        44    2        9.10092351       8.83511839       6.84862521
        45    2        6.00757833       2.34314358       4.74095830
        46    2        9.63016846       1.57876371       8.52685251
        47    2        0.80219301       3.30572644       4.00316578
        48    2        1.10417403       1.63953552       5.90049300
        49    2        7.91288058       3.37321922       9.21183360
        50    2        2.64150661       6.19958137       5.17864629
        51    2        5.29394991      10.37604923       9.21077150
        52    2       10.54188351       9.53532182       9.08955035
        53    2        8.76192188       1.36009979       6.07464665
        54    2        8.54950684       4.20193037       1.93212719
        55    2        1.65134349       7.97959894       7.42105605
        56    2        7.09408043       1.06256251       8.22564331
        57    2        6.65046642       1.56090929       2.29225083
        58    2        0.50240134       4.30296246       0.21327238
        59    2        6.87393279       3.41796183       6.89818671
        60    2        0.88430458       9.21795206       5.02446098
        61    2        8.41724082      10.14514434       4.37828755
        62    2        9.39435905       1.54863584       0.74212081
        63    2        0.55654195       6.89285259       9.45078315
        64    2        8.06604905       9.44702931       9.55895978
        65    2        5.79303450       5.76874161       6.08419831
        66    2        4.28289730       1.43376794       1.12855771
        67    2        7.07031894       7.81263138       5.15629907
        68    2        8.31855812       6.28339074       7.10540336
        69    2        2.30735525       8.37445384       3.00743600
        70    2        2.46852146      10.25026895       0.66511284
        71    2        7.67985809       9.36531646       1.89365098
        72    2        3.78494015       6.13454320       2.24191488
        73    2        6.17359063       4.55916025       3.89233018
        74    2       10.43802085       6.62742625       5.86277937
        75    2        8.95510232       4.62470734       4.79802660
        76    2        8.66838545       2.27049959       3.67800471
        77    2       10.29548591       7.95488652       1.43650631
        78    2        4.88036859       7.48715918       4.05454499
        79    2        3.35024257       4.61141436       0.12837582
        80    2        5.98322963       9.96682312       3.81755200
        81    2        4.83496857       9.19054074       1.74768950
        82    2        4.71707872       3.14044315       9.05975815
        83    2        2.02959540       2.55991489       9.01370373
        84    2        6.15236652       5.33050594       8.87957087
        85    2        3.54412227       8.99691649       5.72297073
        86    2        3.12234929       8.31499075       9.47419339
        87    2        3.80886361       6.07049761       8.14819930
        88    2        9.20507258       7.77732719       3.85794834
        89    2        5.76294271       4.56825619       1.03094797
        90    2        6.81861002       6.85209752       2.69523371
        91    2        1.88843090       0.31874055       7.86687064
        92    2        6.05287456      10.12278731       6.41068149
        93    2        1.61334595       5.09457675       7.83087166
        94    2        6.10077888       8.12193510       8.13304993
        95    2        3.93791638       3.80455550       6.11984507
        96    2        0.85124768       5.65997677       2.58310434
        97    2        5.78672012       7.13062774       0.46541700
        98    2        8.57900943       6.50371956       0.47195451
        99    2        3.40711998       1.28749879       4.99527468
       100    2       10.40515816      10.23089144       2.59252226
