 # Al40 O60
 
         100  atoms
           2  atom types
 
      0.00000000      10.34532155  xlo xhi
      0.00000000      10.35740657  ylo yhi
      0.00000000      10.05889212  zlo zhi
      0.38408912      -0.82168503      -0.24399959  xy xz yz
 
Masses
 
           1   26.98153860    # Al
           2   15.99900000    # O 
 
Atoms # atomic
 
         1    1        7.69506348       4.22428342       5.89322998
         2    1        7.67834328       9.51624311       3.82083406
         3    1        5.20211145       3.63163950       7.38888615
         4    1        1.84017295       6.93215770       4.21315539
         5    1        8.29120277       3.52088624       2.72343458
         6    1        2.38875529      -0.06338482       5.33971309
         7    1        1.07042692       8.12350447       7.87738427
         8    1        0.58499761       1.93573448       4.38984315
         9    1        6.09808967       2.02559756       0.97137796
        10    1        7.50522921       4.01429323       9.31183349
        11    1        4.53373173       5.93482477       6.33772870
        12    1        0.22651401       5.02440655       9.07547678
        13    1        6.40935298       1.71995514       3.96658922
        14    1        9.57651359       7.28034381       5.61087477
        15    1        1.84549282       0.26872027       8.10091408
        16    1        6.73483401       8.02349621       6.83951060
        17    1        3.13766758       2.17888659       0.44070330
        18    1        6.93275790       9.23245924       9.41295734
        19    1        2.95458017       2.78778240       3.52162970
        20    1        5.29944264       9.83149280       1.68722827
        21    1        5.09019711       0.67000522       8.04732443
        22    1        3.19183221       7.14053209       9.96507846
        23    1        8.83329173       6.94293344       9.36919794
        24    1        0.41794748       9.44322222       3.61505437
        25    1        2.61924043       8.75398236       2.15447819
        26    1        5.16772277       4.22608853       2.98659210
        27    1        0.31634987       3.06544868       1.36906622
        28    1        4.15739138       4.54585685      10.01644882
        29    1       -0.58330599       0.42778075       9.16936035
        30    1        8.78796423      -0.14337215       6.08574802
        31    1        9.75860709       6.49856803       2.54008693
        32    1        7.26496192       6.36003165       4.12563670
        33    1        4.64717926       8.06159056       4.52569402
        34    1        2.37737569       3.13502091       7.60254496
        35    1        3.83071028       8.63205257       7.32536776
        36    1        6.23896785       7.34543933       1.85347802
        37    1        2.29755217       5.35128579       1.77548489
        38    1        9.57601495       2.78792511       7.21109201
        39    1        9.52978952       0.02878075       1.35234069
        40    1        0.35913411       4.60062030       4.65868988
        41    2        1.12727676       9.71149561       1.96350037
        42    2        2.13066565       2.57453178       1.84988327
        43    2        5.91014948       0.89341577       9.63410349
        44    2       -0.08638680       0.33287587       4.95599975
        45    2        5.49815177       3.71331375       1.29041684
        46    2        9.55017373       3.47553919       5.57154239
        47    2        2.73913218       7.49620749       8.30130864
        48    2        2.21802533       8.87464971       4.06832364
        49    2        5.73051971       4.14719886       9.02633014
        50    2       10.09625001       8.53819960       6.73142609
        51    2        2.07249342       1.53051428       6.78372841
        52    2        1.65054145       3.38870651       4.71919210
        53    2        9.97111317       2.75763300       3.05418493
        54    2        4.48200497       1.15743125       1.12734671
        55    2        5.56637746       6.55105371       0.38290018
        56    2        6.50779278       9.65460903       7.64228161
        57    2        4.85344763       8.31473469       2.79609509
        58    2        8.80347255       3.79114315       0.92150195
        59    2        9.59525365       7.23558801       1.03179951
        60    2        2.17949842       9.30850863       6.74642551
        61    2        2.23634941       1.12932167       4.02842424
        62    2        8.75194184       5.19678180       8.96091083
        63    2        3.28602766       5.73194779       0.19996494
        64    2        9.32424866       1.01263243       7.48318987
        65    2        8.28046973       5.98697430       5.67379414
        66    2        1.14979635       1.43675036       9.28034010
        67    2        0.22250881       6.79722930       8.78740943
        68    2        1.10837764       4.52826884       0.62631722
        69    2        3.49063959       6.72762407       5.06165966
        70    2        0.64477768       3.76268454       7.86170226
        71    2        5.84819944       0.05564034       3.20542189
        72    2        3.58591318       4.49285957       7.13697598
        73    2        7.55410327       7.79317849       3.04812626
        74    2        0.81779654       5.38327047       3.07535498
        75    2        9.15546843       9.97098735       2.86239807
        76    2        8.66209360       9.60489151       9.78558608
        77    2       10.11636359       1.54574985       0.59381875
        78    2        7.19841684       3.47569979       4.30134221
        79    2        3.41440590       4.53617458       2.91680964
        80    2       10.24714659       7.71787002       3.88368242
        81    2        7.23402593       2.06879958       2.31755627
        82    2        7.51090927       0.71433208       5.02887039
        83    2        2.32595532       7.05184772       2.38651450
        84    2        6.07409972       7.25909241       5.22480725
        85    2        5.94253376       4.76555456       6.24759258
        86    2        4.99632751       1.99781178       6.99599940
        87    2        7.88552723       3.33717165       7.55776509
        88    2        6.61629687       8.96883875       0.74417555
        89    2        5.99373742       5.78792521       2.99636803
        90    2        8.12722023       8.68195361       5.49388683
        91    2        5.05531679       7.32224203       7.38982786
        92    2        7.51844438       7.64324911       8.46591496
        93    2        0.73744076       6.13638689       5.55303171
        94    2        3.14885696       3.06748547       9.29481595
        95    2        4.77611233       2.64332222       3.82318060
        96    2        8.62011191       5.31378337       3.23567410
        97    2        3.96131598      10.12372721       8.37624849
        98    2        0.96881568       9.51649374       8.92671955
        99    2        3.74151032       8.95958495       0.78953321
       100    2        4.36941675       9.42482342       5.62875213
