 # Al32 O48
 
          80  atoms
           2  atom types
 
      0.00000000       5.65803700  xlo xhi
      0.00000000       5.65688200  ylo yhi
      0.00000000      23.67787900  zlo zhi
