 # Al4 O6
 
          10  atoms
           2  atom types
 
      0.00000000       2.83376900  xlo xhi
      0.00000000       4.93431400  ylo yhi
      0.00000000       8.91879900  zlo zhi
      0.12780600       0.75757800       1.28809300  xy xz yz
 
Masses
 
           1   26.98153860    # Al
           2   15.99900000    # O 
 
Atoms # atomic
 
         1    1        2.31535523       5.16410397       5.65599908
         2    1        2.84937958       3.49892612       1.63378128
         3    1        1.40379777       1.05830303       3.26279991
         4    1        0.86977341       2.72348087       7.28501772
         5    2        1.45228362       3.09352515       0.40527915
         6    2        1.42665095       4.52962264       2.18631871
         7    2        0.89438170       4.16894171       6.21060568
         8    2        2.29250205       1.69278435       6.73248029
         9    2        2.82477130       2.05346528       2.70819332
        10    2        2.26686938       3.12888184       8.51351985
