 # Al40 O60
 
         100  atoms
           2  atom types
 
      0.00000000      10.26337432  xlo xhi
      0.00000000      10.84758924  ylo yhi
      0.00000000      10.10699012  zlo zhi
      0.18129658      -0.19741672       0.62709478  xy xz yz
 
Masses
 
           1   26.98153860    # Al
           2   15.99900000    # O 
 
Atoms # atomic
 
         1    1        9.62330336       3.42872010       6.07008240
         2    1        6.89833600       4.79086720       6.19747970
         3    1        0.27652770       8.43515213       7.05241888
         4    1        9.04384003       5.78432901       8.13904039
         5    1        7.05109179       7.26314419       4.45193903
         6    1        1.48570549       6.38170951       8.55354291
         7    1        3.61401921       4.49163884       3.13748100
         8    1        0.47520505       3.00583088       8.94954792
         9    1        3.24402252       4.58680468       9.97957534
        10    1        7.79780647       8.89066762       7.27502675
        11    1        3.61475580       7.78976842       2.53898639
        12    1        4.30457933       2.04773740       8.24746100
        13    1        6.16829180       1.82257175       3.06248552
        14    1        6.43249305       1.39581152       6.48324009
        15    1        4.37176860       7.38075671       8.02058676
        16    1        9.74747220       8.01434717       9.73368571
        17    1        2.10199020       1.38109153       6.51788443
        18    1        1.29506025       9.69117876       1.71655362
        19    1        2.23994195      11.15643075       9.01406074
        20    1        5.93544312       9.62048628       5.19604273
        21    1        4.64390953       3.06444516       5.18145683
        22    1        1.45950522       8.08280810       4.05410789
        23    1        0.80256816       5.87737235       5.20413247
        24    1        0.34288721       0.84006114       4.34247225
        25    1        3.52610429      10.80060472       3.77571115
        26    1        9.33942643       0.66903718       6.90289606
        27    1        8.66916517      10.53248861       3.48874581
        28    1        6.68743142       3.36069726       0.81435870
        29    1        7.85623650       2.11272947       8.70466414
        30    1        4.21086106       6.41478966       5.14729915
        31    1        7.22630022       4.67511112       3.58574876
        32    1        5.23072048       9.86206941       9.88247112
        33    1        6.12075477       9.63073752       2.16249878
        34    1        5.56979199       4.82548617       8.32979800
        35    1        1.90531736       2.14382281       2.14708117
        36    1        9.09023727       2.43791892       1.82238704
        37    1        4.13364466       1.00667270       1.17272387
        38    1        0.89294753       4.51096444       0.83812347
        39    1        9.50279885       6.60234397       2.50772405
        40    1        2.95464837       9.44536377       5.98165716
        41    2        3.19741499       2.67087767       3.33645894
        42    2        3.59427098       7.93637392       6.57279793
        43    2        8.49880986       7.66271637       8.44713419
        44    2        5.43019166       8.01569205       4.58723737
        45    2        9.68936875       4.02667695       7.80698584
        46    2        8.21621470       4.15909112       5.14152159
        47    2        0.67265396       4.20377590       5.26701250
        48    2        0.33890256       1.78290420       6.13121918
        49    2        5.61255991       2.04168873       1.32300147
        50    2       10.24769005       5.07918826       2.17334944
        51    2        4.21118162       3.70885326       8.71385614
        52    2        2.01598490       0.57049947       4.83474513
        53    2        5.87309353       1.51262494       4.81284540
        54    2        0.29132839       6.49554175       6.95483407
        55    2        1.18846387       8.96027690       5.65051881
        56    2        5.68297335       3.59743807       3.47966245
        57    2        4.39913537      10.42591684       5.36446380
        58    2        3.00072398       2.24393711       0.66443171
        59    2        7.39810146       5.11644874       7.87436601
        60    2        2.32458535       6.64839121       4.78513234
        61    2        4.89080297       0.18537249       2.71592481
        62    2        1.35004776       9.90195873       0.03429251
        63    2        2.41413807       0.27260488       2.15936834
        64    2        8.07850529       1.97979471       6.81887918
        65    2        6.07576481       1.55627824       8.29177904
        66    2        7.17757797       9.52756858       3.61757254
        67    2        6.26102155       5.70412637       4.85789781
        68    2        7.85990063       7.88593383       5.85813407
        69    2        3.07425747       9.02728708       3.90297392
        70    2        4.05324980      11.42457927       9.62194808
        71    2        6.80018748       9.91447811       0.60566320
        72    2        5.58451162       5.20408664      10.08716890
        73    2        7.84076080       3.73723391       2.16470827
        74    2        9.39008767       9.79526166       7.40032068
        75    2       10.21390361       7.08038487       4.09681771
        76    2        0.34061571       2.71761357       0.69632260
        77    2        0.10859333      10.15590104       2.99162471
        78    2        4.18395814       6.22617766       3.06446194
        79    2        1.57985479       4.61424447       9.17623528
        80    2        7.80097490       6.38609557       3.07788433
        81    2        3.20854123       6.45372192       9.04421231
        82    2       10.09067653       6.17495714       9.63701548
        83    2        5.13146154       6.03752407       7.12722536
        84    2        7.89471716       1.17040821       2.67472003
        85    2        3.76089625       2.03250860       6.51182155
        86    2        1.85028064       8.02585239       2.16202446
        87    2        4.75912179       8.62897741       1.45474760
        88    2        9.25467869      11.08079609       5.05359057
        89    2        2.65621203       4.58843785       1.47718896
        90    2        9.53974189       1.47556409       8.68067348
        91    2        0.98694857       8.17771839       8.68021250
        92    2        2.46308039      10.56860407       7.35562100
        93    2        8.01826067       2.44238912       0.05476715
        94    2        6.83377243      10.30963770       6.58112184
        95    2        1.88632736       1.97798202       8.33673988
        96    2        9.55226723       7.82379345       1.22921113
        97    2        5.38058442       8.67421055       8.65668798
        98    2        5.83529271       3.44502902       6.54970537
        99    2        3.78105465       4.60547645       4.98044305
       100    2        0.25406274       2.03139570       3.01575706
