 # Al40 O60
 
         100  atoms
           2  atom types
 
      0.00000000      10.15232675  xlo xhi
      0.00000000      10.43519972  ylo yhi
      0.00000000       9.92232824  zlo zhi
     -0.18492943      -0.15469284       0.73211144  xy xz yz
 
Masses
 
           1   26.98153860    # Al
           2   15.99900000    # O 
 
Atoms # atomic
 
         1    1        5.84996140       2.01648541       9.61216390
         2    1        8.99612491      10.18331077       5.40859891
         3    1        4.29652909       3.44004070       1.67029269
         4    1        1.48901576       4.38507499       4.62343952
         5    1        8.48813471      10.16399879       2.40809013
         6    1        3.37661648       7.44574585       0.94112837
         7    1        1.62403158       1.31309546       5.70644280
         8    1        2.03234710       5.10312441       7.53558809
         9    1        2.60863440       1.95885228       8.30094787
        10    1        4.26670719       4.84119406       8.84555956
        11    1        4.88223212       6.46921935       6.18987381
        12    1        1.53399801       9.45963263       8.16659240
        13    1        6.29193652       9.51984034       5.87393824
        14    1        9.19724321      10.00928264       7.93749041
        15    1        5.76264430       1.05213641       3.79868935
        16    1        7.55455537       7.51059824       7.26667146
        17    1        9.24538769       2.80685576       0.98349036
        18    1        7.67216611       7.47802380       3.99872497
        19    1        2.65684598       1.70127905       3.13982264
        20    1        4.03551306       0.20181272       1.19419070
        21    1        9.97043904       2.41757923       8.19280114
        22    1        4.10287679       8.75081780       7.79081766
        23    1        5.87495468       8.75752576       1.45711871
        24    1        0.78955607       7.57611196       2.48313388
        25    1        0.87178910       0.38381420       0.85108235
        26    1        4.93518370       1.25780447       6.65027232
        27    1        9.37994734       5.32609953       8.44408212
        28    1        5.46673221       6.06581505       2.20360285
        29    1        6.13968754       6.96607654       9.43995584
        30    1        8.98499493       7.85191751       0.55962308
        31    1        7.61675313       2.14363383       6.81292041
        32    1        4.35389489       3.85008604       4.73918953
        33    1        2.85652288       6.65132561       3.96221844
        34    1        3.06298278       9.19683769       4.87213137
        35    1        6.94874802       4.33347131       4.15845848
        36    1        9.53418964       5.07193355       2.88536642
        37    1        1.78452148       4.80307977       0.89913023
        38    1        9.17948506       4.67509465       5.85162501
        39    1        8.88798640       2.26235768       3.77553361
        40    1        6.95535326       3.77204276       0.13448476
        41    2        0.01297558       9.22433489       1.59278492
        42    2        0.25848683       4.14482093       1.62518380
        43    2        5.26190389       2.92180436       0.25759922
        44    2        9.96674120       3.81584497       4.32399427
        45    2        6.00006581       5.33120391       8.60733875
        46    2        8.98115903       3.72462891       7.48834977
        47    2        2.93802210       8.76872527       9.14530377
        48    2        2.47129412       0.33413303       4.40950708
        49    2        3.61493585       4.81805456       0.39190468
        50    2        0.32288010      10.09927408       6.65738286
        51    2        3.22279458       1.22349679       6.80423322
        52    2        1.06667946       5.86681802       3.55762638
        53    2        7.46083383       0.96176457       3.23307992
        54    2        5.70651967      10.45967551       0.94910493
        55    2        7.71192898       9.01272705       1.20214742
        56    2        1.14047360       2.36701671       7.11773731
        57    2       -0.15542554       8.90893265       9.02632454
        58    2        6.71499995       7.71057866       5.54037517
        59    2        4.49245300       1.58738820       2.58882623
        60    2        5.23342707      10.03710354       7.24956527
        61    2        2.35325227       0.67009270       1.69731119
        62    2        0.84976085       5.06102172       6.22647996
        63    2        6.34835120       7.48764451       2.83584239
        64    2        7.60069840       2.09201548       0.23389924
        65    2        7.72591493       7.72118365       9.14643898
        66    2        2.37860929       2.77492555       4.64007857
        67    2        1.25641520      11.07478451       9.05964183
        68    2        8.49179603       5.01529042       9.85947912
        69    2        5.66250630       5.00753918       5.42618435
        70    2        2.67244099       9.00240130       6.72431918
        71    2        3.96098959       8.96185093       1.78182730
        72    2        1.93211825       8.20004475       3.74376013
        73    2        8.22095593       5.73957072       4.28645096
        74    2        3.79775184       6.41489695       2.47720559
        75    2        9.64698849       1.30149588       2.13982748
        76    2        8.71187220       1.19524597       7.99667094
        77    2        3.01972972       3.72487978       8.19567653
        78    2        6.07407189       2.17383732       7.75090529
        79    2        3.98304721       7.55135588       5.08883055
        80    2        9.27518651       6.82796680       2.09619543
        81    2        5.29938034       4.22452836       3.09832697
        82    2        7.80725848       3.25254922       5.34711381
        83    2        1.69625875       6.72980860       1.12908673
        84    2        6.50601605       5.24971100       1.07509121
        85    2        3.96424677       1.51373507       9.41115787
        86    2        7.43974567       0.63875366       5.75161945
        87    2        8.08975874       3.64419505       2.74245125
        88    2        4.99403713      10.01153440       4.65075321
        89    2        5.25883572       7.32863293       0.45821292
        90    2        8.13803047       9.13145709       6.83542713
        91    2        8.67073886       6.15140350       7.01247114
        92    2        9.96154842       1.23122955       4.82887299
        93    2        5.19322666       2.26542594       5.09624739
        94    2        3.60397620       5.98871978       7.45993986
        95    2        3.12980436       5.10473403       4.86287354
        96    2        2.61954947       3.34278683       2.14448423
        97    2        5.56090596       7.57314866       7.66583889
        98    2        0.17815850       2.66551142       9.86622194
        99    2        0.95333089       5.49726635       8.93287774
       100    2        8.59627915       9.07586680       4.00060456
