 # Al40 O60
 
         100  atoms
           2  atom types
 
      0.00000000      10.32268164  xlo xhi
      0.00000000       9.89106768  ylo yhi
      0.00000000      11.13075053  zlo zhi
     -0.54690745      -0.17186016      -0.94011249  xy xz yz
 
Masses
 
           1   26.98153860    # Al
           2   15.99900000    # O 
 
Atoms # atomic
 
         1    1        8.17781661       3.05331622       8.53683086
         2    1        5.82864597       7.87562013       2.02492584
         3    1        5.99098729       6.70785372       8.21697572
         4    1        0.49556050       6.92519055       3.73511568
         5    1        8.92398693       4.88077538       2.11384239
         6    1        2.55666132       8.11518352       5.84783776
         7    1        0.05454795       5.46280998       8.05157143
         8    1       -0.07914155       1.49309682       6.28703113
         9    1        5.46307344       2.55879732       1.79109381
        10    1        8.30109429       2.52847515       0.08779780
        11    1        2.85288559       5.44595172       5.17844990
        12    1        1.84722665       3.48735151       7.28218356
        13    1        7.34579079       3.61815889       4.77601973
        14    1        8.28515441       6.63011026       5.91323894
        15    1        4.15517957       9.68708557       0.74931778
        16    1        0.02461916       8.28857947       7.37564725
        17    1        1.37411673       0.26406255       1.66176573
        18    1        6.84540830       8.26174609      10.56063906
        19    1        5.69458864       2.04506300       6.90642312
        20    1        4.84138020       0.40792088       4.26442628
        21    1        5.04512219      -0.54640197       8.58658097
        22    1        1.50192020       5.05948093      10.46772590
        23    1        8.49910260       5.61391091      10.31301726
        24    1       -0.33002148       9.36246123       4.76900502
        25    1        3.12893524       8.11333012       2.69328144
        26    1        4.10738033       3.11874510       4.63577238
        27    1        0.96589521       3.13693154       0.45892997
        28    1        5.98310500       3.83339401       9.56516561
        29    1       -0.21896777       7.91978289       9.97954643
        30    1        7.72684472       0.38566983       5.24586908
        31    1        8.61481873       9.18367403       2.38742811
        32    1        5.83969549       5.15344429       3.18640875
        33    1        5.51554511       7.51924717       5.19844418
        34    1        2.69531122       0.37686082      10.92050123
        35    1        2.80690620       7.39095095       8.93038425
        36    1        4.42549382       5.89283878      10.42671587
        37    1        3.12851802       5.27309645       2.04127880
        38    1        0.40297224       1.25009975       8.95220887
        39    1        8.91567124       1.95384760       2.70944863
        40    1        9.84118964       4.34549236       4.92674011
        41    2        0.07431733       8.74875575       2.96736637
        42    2        1.97259780       1.94923713       1.36765591
        43    2        7.59373062       0.01458231      10.80150928
        44    2        9.22843266      -0.10407079       6.07988686
        45    2        4.73725929       1.94009897       3.31558089
        46    2        9.22421731       1.94387611       7.71883734
        47    2        1.48023829       4.45479546       8.74810708
        48    2        0.91285620       8.91351203       6.02542366
        49    2        7.31674162       2.80834114      10.14145555
        50    2        9.32710227       6.82612501       7.30505737
        51    2        3.28869154       8.92264713       9.96991332
        52    2        1.32384413       1.81311400       7.39839984
        53    2        9.01939709       2.88489517       4.30500888
        54    2        5.35648064       8.36402097       0.13935410
        55    2        4.29628948       6.34478183       8.62581586
        56    2        5.66034153       9.31616911       5.18456335
        57    2        4.83738452       9.29284213       2.51214272
        58    2        9.64508938       3.30993254       1.59473457
        59    2        8.37695961       7.44675223      10.14786085
        60    2        1.12323648       7.18749344       8.35265990
        61    2        0.63178195       1.19851864       4.69145619
        62    2        9.76884401       1.87909738      10.35619956
        63    2        4.27142256       6.78850565       1.87477413
        64    2        0.17778639      -0.55183577       8.70631891
        65    2        8.28745373       4.89481618       5.65739964
        66    2        4.61675719       1.57819752       0.56192882
        67    2        8.97850035       4.60255463       8.80945922
        68    2        1.87289639       4.79858806       0.68547636
        69    2        1.50718788       6.60811598       5.26850958
        70    2        1.86385347       1.60793544      10.00159555
        71    2        7.28330066       2.36419341       1.78035642
        72    2        3.14720511       3.97410704       6.17412726
        73    2        4.90499198       4.28534794       1.93654278
        74    2       -0.20180721       5.30393189       3.44593900
        75    2        8.34863621       0.33680729       3.59470917
        76    2        9.90970237       0.74765517       1.72120383
        77    2        0.73780376       8.90485174      11.01564232
        78    2        3.96281761       6.79504732       5.49517808
        79    2        3.07185899       4.45438093       3.70869885
        80    2        9.19231824       7.56247011       4.66597523
        81    2        7.49860514       4.61860532       3.13695928
        82    2        7.04890579       1.98598050       5.65862079
        83    2        1.97485470       6.74793948       2.69818542
        84    2        5.60531188       4.17770648       4.72144966
        85    2        6.60550302       6.94185530       6.50336829
        86    2        5.41111878       1.05585951       8.25877002
        87    2        6.44692590       3.43204850       7.83531286
        88    2        7.43608350       8.34161916       1.48301200
        89    2        6.63958166       5.60253819       9.52776106
        90    2        6.09741066       6.91308617       3.62139392
        91    2        3.32012027       8.50337827       7.46004572
        92    2        5.98831357       8.34829055       8.87928554
        93    2        0.45652392       4.34223623       6.43115454
        94    2        4.54839219       4.16280904      10.42946094
        95    2        4.42052603       1.65300085       5.68719187
        96    2        8.56337929       5.84662352       0.76484207
        97    2        2.69757463       6.34499370      10.50536586
        98    2        0.02822748       6.06860990      10.33102403
        99    2        2.54480121       9.38180630       1.61314606
       100    2        3.05927347       8.97416980       4.33264609
