 # Al40 O60
 
         100  atoms
           2  atom types
 
      0.00000000       9.92862108  xlo xhi
      0.00000000      11.10119064  ylo yhi
      0.00000000      10.15537952  zlo zhi
      0.04786015       0.64728048       0.22719985  xy xz yz
 
Masses
 
           1   26.98153860    # Al
           2   15.99900000    # O 
 
Atoms # atomic
 
         1    1        1.88432352       5.85991801       5.28847634
         2    1        7.08460171       1.72828467       7.42207720
         3    1        9.61847295       7.77893175       3.80805934
         4    1        3.63914079       6.80436624       8.85745712
         5    1        4.90934134      11.19515874       6.41287102
         6    1        9.45150511       4.05028477       7.47785095
         7    1        2.21579788       2.37990572       5.15724314
         8    1        4.70570151       1.76913421       8.88874036
         9    1        2.63347970       2.17800246       2.00276819
        10    1        8.59683949       6.42548816       6.44657023
        11    1        8.05639350       6.54466513       9.14424799
        12    1        8.44261218       0.74282430       0.00687275
        13    1        7.15457874       0.30181727       4.54237757
        14    1        7.44018674       9.60167499       9.61208357
        15    1        0.90877006       8.00192926       7.66794351
        16    1        9.65997627       3.48076096       0.41303584
        17    1        1.75643744       2.23143836       8.24944754
        18    1        1.65000682      10.51498499       3.54548743
        19    1        5.71477464      10.19322871       2.49611521
        20    1        2.42537140      10.47704126       8.27854230
        21    1        4.88963466       2.02516991       4.31836899
        22    1        2.06553513       8.25867344       0.33820318
        23    1        4.60827419       7.16106240       3.69998447
        24    1        9.77897784       1.73815166       3.00441541
        25    1        3.18297748       8.71711831       5.75897152
        26    1        9.50789380       1.67128106       5.51867970
        27    1        9.08739407      10.60774062       7.51527819
        28    1        7.36183576       3.90061223       9.78714800
        29    1        6.64497721       4.65007259       4.42888084
        30    1        5.48752709       6.37125126       6.10121289
        31    1        4.74547754       4.60391814       2.17868242
        32    1        7.18135777       8.75467578       6.27702180
        33    1        5.09397826       7.86980960       1.01463402
        34    1        9.39360437       4.68196549       4.42856135
        35    1        1.06397211       0.29733037       0.73271358
        36    1        8.52800282       5.84022755       1.85543699
        37    1        4.17002847       4.04328172      10.07988585
        38    1        1.84919059       5.56994587       1.46336917
        39    1        8.74322707       9.63980534       2.06632878
        40    1        4.02710870       4.29019857       6.84540225
        41    2        3.49484223       2.05099575       0.42737513
        42    2        3.59274921       9.90660915       7.06476078
        43    2        8.68813796       7.97178828       5.38771999
        44    2        6.90491753       7.07128381       6.98479346
        45    2        0.14626624       5.01235158       1.26305167
        46    2        8.03296947       4.97879756       5.54632366
        47    2        0.38383987       3.17265760       4.34056489
        48    2        0.79147667       3.70113199       8.79503586
        49    2        0.27584368       9.37011265       3.18032832
        50    2        4.85255901       6.33583680       1.98795911
        51    2        6.37713788       2.74157136       8.76568966
        52    2        1.15857755       1.93034020       6.60930409
        53    2        8.60321222       2.63548758       6.80989701
        54    2        4.22857221       6.02312531       7.44239740
        55    2        8.73819475      11.17691282       5.91580633
        56    2        5.20003816       4.17679216       0.46840073
        57    2        2.13842760       7.77672002       8.89890184
        58    2        5.60906443       9.86050328       0.69325851
        59    2        8.06896443       4.88219271       8.32419307
        60    2        2.98418474       4.14791730       1.83101381
        61    2        3.19318649       2.35061310       3.62982156
        62    2        7.80444641       9.42209320       7.84775943
        63    2        2.81671516       9.67868869       4.41650976
        64    2        8.06462640       2.56804589       0.35502801
        65    2        8.25956609       0.71595095       8.59218155
        66    2        6.22298369      10.10191435       5.62271933
        67    2        6.08196863       6.32306209       4.32941215
        68    2        0.45010164       6.15999180       4.05268517
        69    2        0.78651304       9.83777758       7.69527986
        70    2        7.12081434       7.84135265       9.94471754
        71    2        7.41624464      10.09495161       3.13132028
        72    2        3.16137905       6.21996099       4.12341891
        73    2        8.62913396       7.58535536       2.29438621
        74    2        9.34372470       7.16866276       8.05042892
        75    2        1.70046936       7.28410931       1.67850499
        76    2        8.10911520       4.70555313       3.14052024
        77    2        0.91230537       0.87942010       4.27387837
        78    2        4.67817029       7.86963759       5.51366162
        79    2        0.82546787       1.18164846       9.47045310
        80    2        8.28437848       9.92288076       0.30225690
        81    2        4.38561414       8.03123208       9.95913717
        82    2        0.81137310       2.45434923       1.54328875
        83    2        3.81189714       1.47987279       5.77142537
        84    2        5.49646773       0.60885821       3.39849979
        85    2        6.29574559       1.56148487       5.67493464
        86    2        2.28504700      10.11535361      10.07860668
        87    2        4.87386353       8.64602080       2.69144936
        88    2        8.32486080       1.61390043       3.97635205
        89    2        3.15802196       5.49872939       9.90974272
        90    2        2.21552188       0.31272674       2.06466188
        91    2        1.83818012       7.54554172       6.21344669
        92    2        3.04992292       0.99790150       8.51168585
        93    2        5.53203021       3.59580978       3.43940901
        94    2        5.61813589       0.56016371       7.95543113
        95    2        3.76629689       3.36717405       8.35347428
        96    2       10.22070370       5.29615859       6.40322687
        97    2        7.61715325       5.31113949       0.45560485
        98    2        5.52369203       4.49165421       5.97812207
        99    2        2.60205608       4.15127485       5.81940791
       100    2        9.40519522       0.35168918       1.71356167
