 # Al40 O60
 
         100  atoms
           2  atom types
 
      0.00000000      10.70903777  xlo xhi
      0.00000000      10.44937930  ylo yhi
      0.00000000       9.81409821  zlo zhi
     -0.03561875      -0.11100156       0.48656888  xy xz yz
 
Masses
 
           1   26.98153860    # Al
           2   15.99900000    # O 
 
Atoms # atomic
 
         1    1        8.34851235       4.29799880       6.13873993
         2    1        7.67606592      10.14772546       3.44155987
         3    1        7.02721863       6.66669294       7.67848518
         4    1        2.78770827       6.92785949       4.63718889
         5    1        9.82670368       5.21047508       1.68911023
         6    1        2.23682486       9.63430685       5.27704169
         7    1        0.34348309       9.01227730       7.70766259
         8    1        0.93347685       2.34485884       3.99443101
         9    1        6.72667542       1.61351988       0.88736465
        10    1        9.23309534       3.31789957       9.20756339
        11    1        5.35774788       6.35663110       5.48240336
        12    1        2.03141271       6.55194949       7.36407857
        13    1        6.17141505       2.38916703       4.38985810
        14    1        8.31466121       7.39865934       4.96065136
        15    1        2.86763020      10.82744930       8.43783739
        16    1        8.02389246       9.23806609       7.93584764
        17    1        3.29998576       1.79521444       1.04311989
        18    1        6.62224557       9.18717950       0.81286328
        19    1        3.63405932       1.59722503       6.03480941
        20    1        4.55791828       0.23517444       2.79480697
        21    1        5.70817763       0.40834881       7.88897531
        22    1        1.94900269       7.11704676       0.15116440
        23    1        7.55021032       6.44667485       0.81042968
        24    1       10.48236087       9.78506854       4.38857275
        25    1        1.99244740       9.06981956       2.12558960
        26    1        3.91639923       4.10428951       4.16821494
        27    1        1.09395633       4.41685735       9.64806899
        28    1        6.32604388       4.38327700       8.65142229
        29    1       10.49093448       0.92161966       8.71387323
        30    1        8.59502906       1.23075074       6.11015057
        31    1        9.78714060       8.37741461       2.00316471
        32    1        6.72699968       5.30386472       3.05876450
        33    1        5.45619046       9.33019309       4.93081041
        34    1        3.29482173       3.47151817       8.04115458
        35    1        4.21200807       8.35076228       7.61252511
        36    1        4.56455582       7.45281452       2.39248312
        37    1        1.99049625       4.71144211       2.31159179
        38    1        0.47461281       2.97113776       6.97489570
        39    1        9.67350197       1.15582509       1.93336027
        40    1        0.13562278       5.20823128       4.79688949
        41    2       10.40369434      10.07314582       2.51105087
        42    2        2.35205356       3.27452737       1.11616318
        43    2        6.39482112       0.68387622       9.64773296
        44    2        1.23156867       0.64490153       4.48473492
        45    2        5.03262127       1.66935326       1.68065637
        46    2        0.14654994       3.45788551       5.26446904
        47    2        3.16303387       7.31779036       8.67215428
        48    2        1.95755704       8.45101795       3.82970932
        49    2        7.36725533       3.26930912       9.55802621
        50    2        0.47851984       9.19083788       5.97065298
        51    2        2.79235277      10.61455650       6.67800234
        52    2        2.36904049       2.75130611       6.64073311
        53    2       10.55834231       2.42615665       2.64964400
        54    2        5.34014142       9.18840646       2.09624977
        55    2        5.43136040       7.05272047       7.09948832
        56    2        7.47283540      10.80233646       7.24196096
        57    2        6.17826743       0.59854894       3.99913079
        58    2       10.13241184       4.11920886       0.31821811
        59    2        9.59923851       9.69049816       8.46235879
        60    2        2.96053833       7.95584235       6.23909261
        61    2        2.31315657       3.47695155       3.65449931
        62    2        9.37651847       3.81743546       7.48074337
        63    2        3.16793303       7.87218424       1.39345267
        64    2       10.14854416       1.41151516       6.97525656
        65    2        9.20491824       5.66202452       5.31114754
        66    2        3.09511477       1.97986633       9.14525015
        67    2        0.74857476       7.44017209       8.30662741
        68    2        1.49732779       5.51873920       0.77285788
        69    2        4.64654140       7.60346289       4.27576509
        70    2        1.95545725       4.82818391       8.09344606
        71    2        7.86832526       1.26166180       2.23790096
        72    2        4.02796604       5.25905071       5.50763914
        73    2        6.05060039       6.53865316       1.88802738
        74    2        0.31180385       5.23802626       3.02579983
        75    2        8.97613537       0.28489033       4.65593038
        76    2        9.53215278       1.14299830       0.14584133
        77    2        0.53133216       2.77635990       8.79447720
        78    2        6.90288011       6.16044990       4.60333898
        79    2        3.30686882       5.75581653       3.09943884
        80    2        9.62929124       8.09606240       3.89451171
        81    2        8.08656798       4.93196760       2.07480282
        82    2        7.67637610       2.70861612       5.41743335
        83    2        0.74517946       8.23528118       1.16115523
        84    2        5.73772837       3.93928437       3.48719955
        85    2        8.16330061       7.76483612       6.86633616
        86    2        4.92898169       1.82764636       7.22658914
        87    2        6.93331824       4.94313995       7.00417979
        88    2        8.03140929       9.12295806       1.90641311
        89    2        7.05297964       5.92156709       9.25976477
        90    2        7.11455792       8.76636127       4.51542743
        91    2        5.38770370       9.48938229       6.67107683
        92    2        7.05888446       8.49371602       9.34691240
        93    2        1.43612885       6.09588265       5.58645184
        94    2        4.65526927       4.20944367       8.79493012
        95    2        4.41797767       2.43505669       4.72148610
        96    2        9.25382626       6.86060882       1.16164044
        97    2        4.27484148       9.81920915       8.77713971
        98    2        1.21630410      10.31017141       8.73010447
        99    2        2.89294022       0.25113747       1.92819011
       100    2        3.89727680      10.16330784       4.42304075
