 # Al4 O6
 
          10  atoms
           2  atom types
 
      0.00000000       5.17795525  xlo xhi
      0.00000000       4.25649076  ylo yhi
      0.00000000       3.96644100  zlo zhi
