 # Al32 O48
 
          80  atoms
           2  atom types
 
      0.00000000       6.19252542  xlo xhi
      0.00000000       6.76862139  ylo yhi
      0.00000000      21.05072007  zlo zhi
