 # Al10 O15
 
          25  atoms
           2  atom types
 
      0.00000000       5.60159700  xlo xhi
      0.00000000       4.89092800  ylo yhi
      0.00000000       9.15704100  zlo zhi
     -2.79555100      -1.56133600      -1.32150400  xy xz yz
 
Masses
 
           1   26.98153860    # Al
           2   15.99900000    # O 
 
Atoms # atomic
 
         1    1        2.38147735       1.08664723       1.11404561
         2    1        5.13440757      -0.01678093       0.14057889
         3    1        2.04046678       4.24080444       2.86813176
         4    1        0.81636599       1.84741624       3.01530372
         5    1        0.80605458       3.42227430       5.77840421
         6    1       -0.61623422       1.02812547       7.54467838
         7    1        0.85629389       0.11125669       5.10822785
         8    1       -2.07256435       1.87712174       4.53618750
         9    1        2.22249858       1.05306453       7.56653624
        10    1       -1.98722154       3.39692359       7.51367264
        11    2        3.86600164       0.26870277       1.55265872
        12    2       -0.58432502       0.99395375       3.93739943
        13    2        0.74346728       0.46827089       1.66477753
        14    2        2.02518724       2.67109911       1.87125049
        15    2        0.74109930       3.41309339       3.97845045
        16    2       -0.50804846      -0.55349348       6.32475906
        17    2        0.80158639       1.66093508       6.32409976
        18    2       -2.19366897       3.56000214       4.01325636
        19    2        2.06341014       1.02183603       4.05968256
        20    2       -3.41019718       2.66400981       8.45927448
        21    2       -2.00955098       1.82705169       6.37523267
        22    2        2.10335469      -0.58486188       6.31244284
        23    2        0.81788903       0.14075765       8.48413585
        24    2       -0.55275374       2.64624194       8.37247489
        25    2       -2.00162347       0.25217417       8.44423862
