 # Al8 O12
 
          20  atoms
           2  atom types
 
      0.00000000       4.84648960  xlo xhi
      0.00000000       4.19718334  ylo yhi
      0.00000000       9.08588700  zlo zhi
     -2.42324440       0.00000000       0.00000000  xy xz yz
 
Masses
 
           1   26.98153860    # Al
           2   15.99900000    # O 
 
Atoms # atomic
 
         1    1       -0.00000216       2.79812363       8.74830995
         2    1       -0.00000216       2.79812363       2.27147175
         3    1        0.00000000       0.00000000       0.00000000
         4    1        0.00000000       0.00000000       4.54294350
         5    1       -0.00000216       2.79812363       4.88052055
         6    1        2.42324736       1.39905972       0.33757705
         7    1        2.42324736       1.39905972       6.81441525
         8    1        2.42324736       1.39905972       4.20536645
         9    2       -1.48532521       2.83982684       1.01675618
        10    2        3.12979054       2.70624309       5.55969968
        11    2       -0.70654535       1.49094026       3.52618732
        12    2        3.90857041       1.35735650       8.06913082
        13    2        0.70654563       1.49094026       1.01675618
        14    2        0.93791945       1.35735650       5.55969968
        15    2       -0.77877961       4.06359959       3.52618732
        16    2        1.64446482       0.13358375       8.06913082
        17    2        1.48532575       2.83982684       3.52618732
        18    2        1.71669957       2.70624309       8.06913082
        19    2        0.77878038       4.06359959       1.01675618
        20    2        3.20202480       0.13358375       5.55969968
