 # Al40 O60
 
         100  atoms
           2  atom types
 
      0.00000000      10.36267690  xlo xhi
      0.00000000      10.74735905  ylo yhi
      0.00000000       9.99517048  zlo zhi
     -0.01087809      -0.02908337      -0.21620538  xy xz yz
 
Masses
 
           1   26.98153860    # Al
           2   15.99900000    # O 
 
Atoms # atomic
 
         1    1        9.26305755       2.37146780       5.97785129
         2    1        8.01516557       7.15068019       2.95799924
         3    1        3.10085024       4.56102568       2.52766737
         4    1        1.96940942       4.69695606       8.99251135
         5    1        5.15096730       7.57739488       5.92119687
         6    1        0.40104823       3.33475637       1.27507011
         7    1        3.45321986      -0.05022836       8.31407446
         8    1        2.60255681       7.48073485       1.14835453
         9    1        0.43106062       9.35610688       7.77004633
        10    1       10.19892396       8.89417639       2.05086185
        11    1        9.56867682       3.69109297       8.87194161
        12    1        3.42296804       7.72734348       3.79496893
        13    1        0.06703822       6.50100800       0.74838869
        14    1        3.76286357       4.88166736       6.41764519
        15    1        9.66318877       1.68165564       3.33200043
        16    1        6.31226218       2.88881764       5.71380378
        17    1        2.67725806       8.02700935       6.77716607
        18    1        6.92771167       0.55560400       1.52816561
        19    1        6.16591570       4.21576549       8.28316470
        20    1        5.66803197       3.42239721       0.94635454
        21    1        5.17431108       6.57799936       1.81479982
        22    1        1.31065370       9.97045838       4.85784796
        23    1        2.37611978       1.57344494       3.18349428
        24    1        6.08230037       9.31460846       3.61053864
        25    1        7.70399097       5.60332779       0.21372573
        26    1        0.20206709       6.08535853       6.78596222
        27    1        7.82010821       8.10412586       7.12730529
        28    1        2.98526687       1.96543732       6.00470502
        29    1        9.24739234       0.65633829       0.22811018
        30    1        5.97432313       0.03599742       5.93596373
        31    1        8.84086423       9.95678842       4.96105709
        32    1        5.08435178       1.73079310       3.50351325
        33    1        0.95538286       1.68515313       8.64370739
        34    1        4.06042359      10.11647492       1.57194826
        35    1        6.33905700       1.17468169       8.46280630
        36    1        7.89925236       5.59947436       5.70404809
        37    1        0.34659454       4.21450619       4.05966613
        38    1        5.24661196       7.24590914       8.95973409
        39    1        8.32441369       8.33304469       9.63427346
        40    1        7.60790474       4.05435505       3.08668996
        41    2        9.76245833       2.38156312       0.03150308
        42    2        7.39100489       0.47080150       9.71832055
        43    2        3.76671200       0.55377561       2.83178862
        44    2        8.91109329       6.67337806       6.67959022
        45    2        6.78481988       8.15890336       8.72898479
        46    2        1.13020370       7.46007197       7.35440146
        47    2        7.19385365       4.22654001       1.36002066
        48    2        1.33998513       4.31323634       2.56521203
        49    2        3.07355900       8.81956331       2.34004682
        50    2        7.52761680       9.64612771       6.20000855
        51    2        2.76944935       3.66497829       5.73745765
        52    2        2.54375925       1.43875793       7.69266482
        53    2        6.64606030       6.82393469       6.24500561
        54    2       10.01081675       2.40357584       7.57044557
        55    2        8.83769271       1.00208758       4.81526084
        56    2        0.29526085       0.03373558       9.02044716
        57    2        4.62654016       4.77277970       1.55285788
        58    2        3.37493645       5.13901700       8.09119865
        59    2        0.09008226       9.86040184       3.51538042
        60    2        5.64787316       2.73695308       9.18237841
        61    2        2.13210639       0.82454685       4.84491041
        62    2        0.40989509       4.87576853       8.08216482
        63    2        3.77941877       6.48399390       5.46327623
        64    2        9.28686828       3.50452731       2.97456813
        65    2        0.27316063       5.52457975       5.14245444
        66    2        5.87458693       9.84333933       1.82857896
        67    2        1.82998357       6.02008209       0.36624973
        68    2       -0.00890394       9.79206736       6.03916966
        69    2        0.97741513       8.21335324       0.87086651
        70    2        0.84825403       1.72848454       2.28350335
        71    2        8.05531481       3.78885430       5.83118756
        72    2        9.01292916       9.60985300       0.88564977
        73    2        4.74571124       1.70734478       5.46116984
        74    2        3.08159825       6.36169128       2.68387819
        75    2        5.50543297       4.22568979       6.63606775
        76    2        0.24828885       2.64662364       4.82641475
        77    2        8.88449834       6.68713660       9.82381818
        78    2        9.82355641       4.78241374       0.58556007
        79    2        5.99902920       5.64797221       9.27316854
        80    2        2.28378802       9.60191670       7.53875319
        81    2        7.85300928       8.75425603       3.75078298
        82    2        6.95796275       6.79880053       1.55184097
        83    2        9.15195185       8.80988930       8.17567644
        84    2        6.32251953       3.14724264       3.94073350
        85    2        1.63175443       3.06690917       9.74016630
        86    2        5.13197498       0.10270790       7.66523547
        87    2        3.53244235       2.95901049       3.17335298
        88    2        6.28233669       0.33967973       4.06846818
        89    2        8.57850215       1.01918349       2.02148285
        90    2        7.73637828       5.67147599       3.91959481
        91    2        5.24766512       7.59196356       3.37750814
        92    2        9.68326130       7.17269494       2.38339358
        93    2        4.32130140       7.49917687       0.47468624
        94    2        6.99166560       1.60653936       6.82572071
        95    2        3.61079582      10.41132101       9.99098421
        96    2        5.13587593       9.21095022       5.24832929
        97    2        2.39915297       8.56498111       5.01681485
        98    2        7.90837706       4.24527451       8.67974558
        99    2        5.75222637       1.87073805       1.74738399
       100    2        4.33029846       7.81344470       7.53938408
