 # Al40 O60
 
         100  atoms
           2  atom types
 
      0.00000000      10.42288369  xlo xhi
      0.00000000      10.24023634  ylo yhi
      0.00000000      10.49825456  zlo zhi
     -0.01992427       0.43809584       0.58074719  xy xz yz
 
Masses
 
           1   26.98153860    # Al
           2   15.99900000    # O 
 
Atoms # atomic
 
         1    1       10.06168604       1.55962703       6.25016052
         2    1        7.88132691       7.34111960       4.45447849
         3    1        4.22096595       3.22582020       4.91668640
         4    1        1.77277524       5.18189831       8.61759388
         5    1        6.47257621       7.05290923       7.80505385
         6    1        0.74116386       3.52998880       0.60034090
         7    1        4.70892435      10.48172690       8.69144364
         8    1        1.70576426       7.90125384       2.77703147
         9    1        0.68200486       9.19554625       7.75922834
        10    1        0.43181658       9.87122331       1.47428595
        11    1        9.39766264       3.83861222       8.19886648
        12    1        2.01546735       5.02798427       3.55813688
        13    1        0.63138460       6.70341299       0.70152885
        14    1        4.03758699       6.32493363       7.59972574
        15    1       10.46010129       2.09036521       3.28768295
        16    1        6.45168259       4.14788988       7.09366168
        17    1        2.50805499       7.89709513       5.83043904
        18    1        7.84830024       0.95513365       1.41494299
        19    1        7.45697022       5.23133647      10.04289697
        20    1        4.38239651       4.52548158      10.44681437
        21    1        4.50232227       6.99123159       3.49877744
        22    1       10.34637710       9.37743298       4.75313241
        23    1        2.73490229       2.11836876       2.37217206
        24    1        5.47001316       8.74705779       5.69813973
        25    1        7.98704558       6.90245628       1.33179535
        26    1       10.61593342       6.46019894       6.37460379
        27    1        8.23531239       9.63944787       6.83425789
        28    1        2.98852113       0.76819961       6.70271141
        29    1        9.30647393       0.78446418       9.41970430
        30    1        5.70287759       1.28067634       6.22218624
        31    1        7.68760445       0.36808687       4.35529948
        32    1        5.34467410       1.85052889       1.98444034
        33    1        1.51194618       1.80021519       8.63193649
        34    1        4.74477997       9.51495397       1.44403754
        35    1        6.46017379       2.45499782       9.53162535
        36    1        8.84176051       4.51285669       5.25469135
        37    1        1.36961748       3.72229734       5.79660055
        38    1        5.13526204       7.13882475       0.04293818
        39    1        8.86427069       7.90825516       9.25026667
        40    1        8.14595271       3.87591636       2.21576465
        41    2        1.33531594       3.34122093       9.47210718
        42    2        7.86482271       1.61919235      10.11300567
        43    2        2.52695392       3.46749834       1.08084349
        44    2        8.90524428       6.31459145       5.58876901
        45    2        6.88604674       7.58141466       0.14691740
        46    2       10.24086468       7.63895374       7.96502752
        47    2        7.65234727       5.19269207       1.16762899
        48    2        1.69380130       3.16944616       3.62959766
        49    2        3.00635158       8.03246196       3.97871323
        50    2        7.88694429       1.03106647       6.07926657
        51    2        3.08416880       4.07894234       5.94765374
        52    2        4.76766634       9.96452333       6.96736201
        53    2        7.82683696       6.53005784       8.75484795
        54    2        1.46786826       1.97884743       6.79053466
        55    2        0.28016782       0.89225381       4.63573600
        56    2        0.68038430      10.45777342       9.05430783
        57    2        4.81443111       2.34698536       0.26740682
        58    2        2.20838015       6.58881712       7.35174615
        59    2        0.42138324       9.06101826       3.07692954
        60    2        6.50916747       4.07698788       8.87960858
        61    2        3.94447652       1.53827200       5.50863836
        62    2        0.39712151       4.76754362       7.43245306
        63    2        4.19594259       7.55706763       6.17232394
        64    2        9.91687712       3.35779044       1.94422488
        65    2        0.96317085       5.34495941       5.00080262
        66    2        5.04438702       9.69480822      10.20849717
        67    2        1.43090864       8.35199346       0.96945607
        68    2       10.00491546       9.97094679       6.60232153
        69    2        3.75435945       0.62674705       1.98626609
        70    2        1.10259567       1.25766355       1.94331899
        71    2        8.19553619       4.11717069       6.87798291
        72    2        9.32427864       0.05685912       0.72046120
        73    2        5.81927714       3.09338735       5.83140331
        74    2        1.27904836       6.20138445       2.34309966
        75    2        5.68220160       5.70990144       6.96790456
        76    2       10.04702835       3.15036467       5.31662497
        77    2        9.42225097       7.18208228       0.24036258
        78    2        1.28990293       5.79078409      10.27133279
        79    2        5.16775441       5.24729774       0.21735250
        80    2        2.17876121       9.41636126       6.80149095
        81    2        8.51658823       9.05791969       4.84460119
        82    2        6.03813464       7.51386432       4.35223095
        83    2        8.50465143       9.58127801       8.63057203
        84    2        7.01441617       2.59129300       1.74287823
        85    2        3.56603140       5.02123894       8.87809253
        86    2        5.89008667       1.52594959       8.15289368
        87    2        4.35843473       2.76055931       3.16141687
        88    2        5.98351354      10.27307321       4.79055281
        89    2        8.65720961       1.14404777       3.09841097
        90    2        7.92341838       4.34972284       3.84810928
        91    2        3.73507821       5.42684701       3.59176668
        92    2        8.47928804       7.31830254       2.87525052
        93    2        4.62325179       7.72178031       1.81425807
        94    2        9.67853230       2.05777050       8.05798316
        95    2        3.18180546       1.13123868       8.49973354
        96    2        6.94585055       8.38289539       6.75366458
        97    2        0.74729075       7.90067509       5.40734679
        98    2        8.98744116       4.30770385       9.78285646
        99    2        6.25808359       0.18638680       1.92712785
       100    2        5.02687516       7.48213918       8.76301108
