 # Al40 O60
 
         100  atoms
           2  atom types
 
      0.00000000      10.42298353  xlo xhi
      0.00000000      10.84202728  ylo yhi
      0.00000000      10.23466762  zlo zhi
     -0.21939910       1.64829091      -0.36520339  xy xz yz
 
Masses
 
           1   26.98153860    # Al
           2   15.99900000    # O 
 
Atoms # atomic
 
         1    1        3.31739831       5.73983555       5.14101202
         2    1        8.72241446       0.89530386       8.48982597
         3    1       10.47888801       7.09101762       3.15532858
         4    1        5.17462645       6.68691592       8.69625880
         5    1        5.03760199       0.41743668       5.63416375
         6    1       10.06431587       3.43651246       7.37466579
         7    1        2.36474988       2.57397325       5.95348507
         8    1        5.86274345       1.50127491       9.01625367
         9    1        1.79638948       2.55259844       2.86809069
        10    1       10.68607758       6.05594964       5.86083953
        11    1        8.85181170       6.22671531       8.40115813
        12    1        9.35404381       1.02066101       0.32207557
        13    1        7.57428290      10.50933776       5.17818177
        14    1        8.50482194       9.39265758       9.78048305
        15    1        1.85913805       7.23864030       7.74158497
        16    1        8.68916359       3.43563362       1.35234552
        17    1        1.90619393       2.58698922       9.12775526
        18    1        1.22139039      10.26767128       2.94970418
        19    1        5.92632094      10.06376507       2.75400741
        20    1        5.93544749       9.79652204       7.76215246
        21    1        5.02097372       2.46099539       4.16245836
        22    1        2.02882731       8.00575174       0.44157842
        23    1        5.33869140       6.88244189       3.54204365
        24    1        9.30514671       1.15997092       3.05406453
        25    1        3.79881092       8.78054393       4.70997009
        26    1       10.19938108       0.73598989       5.66389105
        27    1        2.07399794      10.05420318       6.19553189
        28    1        7.74981712       3.99805302       9.83797722
        29    1        6.89162014       4.40084452       4.33525066
        30    1        6.30095022       7.07078928       6.27591742
        31    1        4.13774507       4.23296558       2.37577585
        32    1        8.70939642       8.25052405       5.95342100
        33    1        5.63121234       7.44458394       0.45433010
        34    1       10.18651601       4.01937326       4.08881440
        35    1        2.18757890       0.54904016       0.31367230
        36    1        7.96617630       5.82083399       1.96492037
        37    1        4.55856322       3.33402507      10.23177837
        38    1        0.87720420       5.15631294       1.10704562
        39    1        8.98388333       9.15607834       2.43570781
        40    1        5.08197687       3.93049502       6.83887327
        41    2        3.28667573       1.99620368       0.28133505
        42    2        3.95071258       9.84707690       6.14289325
        43    2        9.87874678       7.38586897       4.99549275
        44    2        8.06181704       6.91814613       6.95241749
        45    2        9.57938004       5.06151859       1.27474013
        46    2        9.90592974       4.40546475       5.87312512
        47    2        1.29057539       2.96963584       4.58806148
        48    2       10.77702030       2.42711911       9.92703817
        49    2       10.64860582       8.82203155       2.94885716
        50    2        6.23359293       6.71107699       1.98748003
        51    2        7.55769586       2.07966558       9.19809587
        52    2        1.56117170       0.80056655       6.21741657
        53    2        9.55627948       1.71848629       7.16757067
        54    2        5.46234714       5.61583801       7.28882395
        55    2        9.12716401       9.99410833       6.06737348
        56    2        4.46721743       4.34788992       0.59374971
        57    2        5.70740677       8.07254749       7.74377468
        58    2        5.96442652       9.59083328       1.06184922
        59    2        9.02736099       4.35376922       8.47120542
        60    2        2.17860548       4.07900772       1.77265579
        61    2        3.56854551       2.73440979       3.22254261
        62    2        1.63288324       8.90727198       7.36617481
        63    2        2.27130304       9.58142110       4.35670303
        64    2        8.21017508       1.73855754       1.74688295
        65    2        9.86111293      -0.11783358       9.46471490
        66    2        7.00319967       8.68846411       5.51527304
        67    2        6.50833734       6.09670761       4.68993818
        68    2        0.65741533       5.56018827       3.85856242
        69    2        3.29176803       7.00618222       8.94325490
        70    2        7.27284657       5.76591362       9.39792233
        71    2        7.62897146       9.96801634       3.34755805
        72    2        3.89290106       5.72767685       3.39819264
        73    2        8.79368373       7.35918713       2.36184555
        74    2       10.60359830       6.46700635       7.74489487
        75    2        1.20330891       6.84589049       1.50502138
        76    2        8.41406296       4.53994727       3.45692295
        77    2       10.67552314       0.36360545       3.94784720
        78    2        4.39012531       7.22542586       5.30800700
        79    2        2.32622859       0.92706369       9.78336022
        80    2        8.77291516       7.66054392       9.65688133
        81    2        3.78777056       7.56211247       0.19648034
        82    2       10.26019363       2.82376531       2.64646868
        83    2        4.03006673       1.80184698       5.68811825
        84    2        5.55801034       0.60152067       3.88864794
        85    2        6.55576990       0.20803272       6.44556676
        86    2        1.90556565       9.68056845       0.88160199
        87    2        4.91815226       8.70274534       3.35563494
        88    2        8.57479776       1.28456771       4.72407469
        89    2        2.91914739       3.93441100       9.75023572
        90    2        1.90773563       0.93857689       2.11533651
        91    2        2.01546506       6.41919274       6.09550214
        92    2        5.06593365      -0.06884407       8.75080139
        93    2        5.76330437       3.75016129       3.12751198
        94    2        7.49731140      10.18704797       8.53984197
        95    2        5.07015225       2.99988929       8.36001067
        96    2        1.47055647       3.11673131       7.48804493
        97    2        7.24052764       4.46633283       0.97329990
        98    2        6.18043909       3.30901193       5.55659694
        99    2        3.53365662       4.17777482       5.93937474
       100    2        9.46548738      10.58795223       1.52490222
