 # Al4 O6
 
          10  atoms
           2  atom types
 
      0.00000000       4.67242661  xlo xhi
      0.00000000       2.56211723  ylo yhi
      0.00000000       7.04503200  zlo zhi
