 # Al4 O6
 
          10  atoms
           2  atom types
 
      0.00000000       5.37529722  xlo xhi
      0.00000000       3.05464198  ylo yhi
      0.00000000       6.95008600  zlo zhi
