 # Al40 O60
 
         100  atoms
           2  atom types
 
      0.00000000      10.49774120  xlo xhi
      0.00000000      10.05523750  ylo yhi
      0.00000000      10.68838611  zlo zhi
      0.54314431       0.72122208       2.40698655  xy xz yz
 
Masses
 
           1   26.98153860    # Al
           2   15.99900000    # O 
 
Atoms # atomic
 
         1    1        3.22747672       6.32150018       4.35966400
         2    1        4.99598516       2.63069937       9.32148079
         3    1       11.06589599       8.34118936       3.43925640
         4    1        3.98456850       8.16601373       8.98272661
         5    1        4.67995246       2.00778042       6.38759298
         6    1        9.39100792       5.25430310       8.46202799
         7    1        1.93110534       3.97243013       6.20691330
         8    1        5.73619211       2.25586120       0.56403693
         9    1        3.48561751       9.38214755       3.08601411
        10    1       10.88385950       6.35787195       5.90820786
        11    1        9.78761435       7.94563659       9.31079455
        12    1        8.42917893       0.63393178       0.05388048
        13    1        9.40942326       3.52158966       5.40328209
        14    1        6.42746331       9.87199544       8.19027235
        15    1        1.36442941       9.84927276       7.76883271
        16    1        9.20494366       3.12691445       2.52572015
        17    1        1.64020164       6.18600795       8.42070540
        18    1        0.57885686       1.37905080       1.34355771
        19    1        5.70970991       1.03370341       3.53298158
        20    1        2.61551330       9.36137888       0.48876472
        21    1        4.78621933       3.61935297       3.70399939
        22    1       11.44463914      10.78540188      10.19153252
        23    1        6.72416331       8.50324087       3.44529587
        24    1        9.35439254      10.72615456       3.42269453
        25    1        3.96498318       9.22061717       6.10453363
        26    1        2.04410318       1.88096143       4.78046641
        27    1        9.26690169      11.12602806       7.06792276
        28    1        7.17210656       5.12741380       1.10759716
        29    1        7.35125751       5.38031673       3.85613852
        30    1        6.81737003       6.56992869       8.69749762
        31    1        4.45821460       5.08700579       1.05409847
        32    1        5.58421568       6.18864161       5.69982409
        33    1        5.52576236       8.00085068       0.67116716
        34    1        1.96247041       3.95317940       2.41885542
        35    1        1.35880201       3.18011368       9.22337798
        36    1        9.90691057       6.07449594       2.93941948
        37    1        3.59351937       5.24085852      10.31683280
        38    1        2.29591625       6.61376255       1.50159736
        39    1        8.47522251       7.63847647       1.10026717
        40    1        6.93597968       4.09651947       7.14802901
        41    2        5.27438891       2.18240247       2.29848431
        42    2        3.27858366       2.33017190       9.56991181
        43    2       10.66994136      10.27525499       6.58096149
        44    2        5.75076431       8.25474021       8.57101115
        45    2       10.63913342       6.34536977       9.33486094
        46    2        9.86293375       5.05343977       6.60466053
        47    2        2.91145843       3.07354413       3.67901945
        48    2       10.02229232       3.75152947       9.32955202
        49    2       10.83542156       9.97353570       3.78462221
        50    2        8.13258882       6.22255393       2.43170478
        51    2        5.03444745       4.19367397      10.18551550
        52    2        0.67557974       2.92442042       5.38617297
        53    2        7.65803498       4.82349457       8.59115000
        54    2        5.78905653       5.86787270       7.40021079
        55    2        8.01434606      10.16733975       7.66273850
        56    2        6.47203534       6.41212798      10.65531164
        57    2        1.63755275       7.84682708       0.48206641
        58    2        6.75261569       0.92498877       0.26659539
        59    2        8.48317942       7.15222612       8.39317650
        60    2        3.20169988       3.70775980       1.11748659
        61    2        6.06977944       4.59227189       2.80746387
        62    2        1.50863386      11.48127147       8.59262585
        63    2        5.25925574       9.56927740       3.59130746
        64    2        8.20308820       3.72203900       1.26901616
        65    2        6.17593368      10.98940076       9.65189547
        66    2        5.30705264      10.30812713       6.76332161
        67    2        6.67030675       7.05536661       4.45318054
        68    2        3.46452880       5.70272157       2.59899534
        69    2        1.85182543       5.47856051       5.22035923
        70    2        3.28622306       6.05257553       0.03255405
        71    2        7.73005197      10.02695042       3.72561772
        72    2        5.74428941       6.29806513       0.91645696
        73    2       10.02293656       7.74589228       2.08382080
        74    2        1.16936137       7.30346439       7.12351594
        75    2       11.09983625       9.17817688       9.25199570
        76    2       10.28927296       7.08395269       4.44207787
        77    2        9.17742651       1.24528276       1.69733089
        78    2        4.18479618       7.54482851       5.45431485
        79    2        2.01137764       4.55196359      10.49794536
        80    2        8.91525934       8.63448644      10.68261769
        81    2        2.33469258       7.85473907       3.35244950
        82    2        0.51895852       2.88033785       2.35177404
        83    2        3.00714863       2.52184461       6.23090306
        84    2        5.38562027       2.23907699       4.79954347
        85    2        8.36381741       2.76893340       6.72461960
        86    2        2.54857579      10.47941222       2.00590535
        87    2        6.94677789       8.44362300       1.67869729
        88    2        8.73159589       2.28783703       4.08056470
        89    2        3.28519651       6.50959355       9.03729104
        90    2        3.09776497      10.20530922       4.81132324
        91    2        3.08907396       9.14124014       7.70049213
        92    2        0.85132710      10.04206708       0.19805441
        93    2        9.23654615       4.61862647       3.85466106
        94    2        4.03688418       8.59920569       1.40895823
        95    2        5.57330083       2.91311875       7.62795935
        96    2        1.81543240       4.42891170       7.89596058
        97    2        0.97214709       5.48997819       2.16646019
        98    2        7.02146698       4.74455326       5.48147201
        99    2        4.43835203       5.03672342       4.89620891
       100    2        9.77010033      11.28485328      10.60471518
