 # Al40 O60
 
         100  atoms
           2  atom types
 
      0.00000000      10.06535237  xlo xhi
      0.00000000      10.06859786  ylo yhi
      0.00000000      10.87934434  zlo zhi
      0.64286242      -0.19808042       0.52949415  xy xz yz
 
Masses
 
           1   26.98153860    # Al
           2   15.99900000    # O 
 
Atoms # atomic
 
         1    1        7.84617907       4.85057845       6.70232409
         2    1        9.09494318       7.16762450       6.57334304
         3    1        2.36633528      10.17361065       5.21218051
         4    1        5.89243432       6.03568412      10.03693256
         5    1        8.39173873       5.76046772       3.35019607
         6    1        2.24349266       7.42459287       6.10959543
         7    1        3.41598926       3.30401788       5.23320974
         8    1        9.18821679       3.19830983       2.98371948
         9    1        3.98373410       5.28987615       1.57361546
        10    1        9.17396629       3.12685428       8.82078929
        11    1        5.23015561       6.05433456       4.61339065
        12    1        3.81523367       8.24430442      10.77706654
        13    1        6.21533683       2.96748046       5.03550279
        14    1        9.90692987       9.69381133       6.95003958
        15    1        6.72168832       8.89606774       9.27777506
        16    1        1.18626684       7.77183997       9.03760527
        17    1        4.51589113       0.49738645       4.25707439
        18    1        1.65224300       3.56572221       8.12337230
        19    1        3.91422239       9.35872762       8.09505652
        20    1        7.12619046       9.89288033       6.56816534
        21    1        6.70778049       2.03432464       8.24453795
        22    1       10.45095293       6.59286143       1.46544355
        23    1        0.39809970       4.75295665       5.45985869
        24    1       10.42369154       9.44607971       2.95551423
        25    1        3.11041775       8.18170350       2.95951196
        26    1        9.01928745       1.99455194       5.41294826
        27    1        8.12078120       0.66129004       0.21228266
        28    1        6.74696581       3.55942116       1.28819216
        29    1        3.70584435       2.13688331       9.84293057
        30    1        5.22804886       6.71674304       7.20934494
        31    1        7.31813917       0.73636493       2.87024694
        32    1        6.23435564       9.67050736       0.64809364
        33    1        7.64069024       8.12197012       2.99018725
        34    1        4.76416781       3.82496941       7.80264879
        35    1        2.82241572       0.37909476       1.39968455
        36    1        1.14596690       0.61122946       9.26356969
        37    1        1.35618653       2.59377032       0.31797560
        38    1        1.56319744       2.32526557       3.10644534
        39    1        8.71875415       5.91945613       9.75932890
        40    1        1.94646186       5.43790171       3.35154598
        41    2        1.00975995       0.59942087       3.46142148
        42    2        2.47778716       3.76912657       3.79809672
        43    2        0.31735262       4.09283506       7.07070554
        44    2        8.22708274       8.61468267       7.07338534
        45    2        7.84605980       3.50459280       5.43976105
        46    2        8.13162442       1.84802056       9.50781358
        47    2        0.17043643       3.19375467       4.52005621
        48    2        0.20017620       0.78553023       5.95545873
        49    2        5.89854014       1.61567562       3.90502098
        50    2        1.69072597       5.88184894       5.07686649
        51    2        2.45496705       3.47190063       9.79884268
        52    2        2.88582160       9.27206166       6.73417533
        53    2        7.90320675       1.03247735       6.60260804
        54    2        9.84403374       4.27619569      10.00102811
        55    2        1.86942854       6.73545412       7.81717010
        56    2        5.19914840       2.79463797       9.18318667
        57    2        5.93113952       9.52523273       5.40430875
        58    2        2.60899014       2.14340858       1.69241550
        59    2        7.66563221       3.64639178       8.00905584
        60    2        2.44339657       8.46917173       4.55570880
        61    2        8.49610987       1.72227932       3.71502596
        62    2        0.57104588       2.12527696       8.48857872
        63    2       10.12407668       7.06168577      10.43318841
        64    2        0.52540774       9.48227168       8.64165349
        65    2        5.61334072       2.66172219       6.70581886
        66    2        6.74365334       9.46919997       2.31166245
        67    2        6.44678329       5.88447820       6.22725848
        68    2        8.75250780       6.01523346       7.89117673
        69    2        1.18769593       7.91194461       2.41422551
        70    2        4.16237190       9.79513089       3.02814387
        71    2        7.52049122       9.93680420      10.60838568
        72    2        3.93131863       6.41164164       3.14718097
        73    2        4.94113637       4.20443776       4.73157993
        74    2        0.42999168       8.13436296       6.20170475
        75    2        8.95238449       5.82562628       5.29506066
        76    2        0.28817822       2.81433862       1.78070954
        77    2        8.66062198       7.01054226       2.02359254
        78    2        4.09437946       6.75616072       5.88253873
        79    2        2.19480216       5.51339974       1.53453261
        80    2        6.77148842       6.69637486       3.70698003
        81    2        3.33571763       8.56986719       1.21493751
        82    2        7.16938451       4.98192953      10.72102638
        83    2        4.60700728       6.07046912       0.06953337
        84    2        7.10173813       1.79284929       1.26934315
        85    2        2.95625751       0.90986918       8.76533249
        86    2        2.73594492       8.67816785       9.47042388
        87    2        5.33199122       8.98998184      10.46974116
        88    2        8.79195879       9.20332493       3.82959351
        89    2        5.12851844       4.01688763       1.59867885
        90    2        7.77818042       4.20573055       2.66121002
        91    2        1.44171181       0.70447085       0.05962087
        92    2        5.30031576       8.24065445       8.06816506
        93    2        5.10278660       5.45096872       8.48964718
        94    2        6.62022984      10.41064507       8.20332710
        95    2        3.12313350       3.68036667       7.02400693
        96    2       10.17439147       5.31108939       2.93116441
        97    2        4.33195066       0.78653641       0.44901861
        98    2        7.22656937       7.19520327       9.65338780
        99    2        3.12104460       1.50454175       5.00309703
       100    2        9.56493873      10.14485741       1.60649088
