 # Al4 O6
 
          10  atoms
           2  atom types
 
      0.00000000       5.31609103  xlo xhi
      0.00000000       4.31521125  ylo yhi
      0.00000000       4.01119500  zlo zhi
