 # Al40 O60
 
         100  atoms
           2  atom types
 
      0.00000000      10.70029764  xlo xhi
      0.00000000      10.26487387  ylo yhi
      0.00000000      10.18038395  zlo zhi
     -0.03707448       0.20400196       0.75417478  xy xz yz
 
Masses
 
           1   26.98153860    # Al
           2   15.99900000    # O 
 
Atoms # atomic
 
         1    1        2.74374659       5.03646891       2.92851918
         2    1        3.93788246      10.38039013       4.09017836
         3    1        5.38655630       7.39577362       7.01539888
         4    1        6.57713166      10.47417910       9.88541781
         5    1        4.48095557       1.38385196       8.44157325
         6    1       10.24210491       4.79141150       7.79100406
         7    1        3.82114392       3.09868880       5.74586642
         8    1        1.71166250      10.95553253       9.72941625
         9    1        4.08659585       7.74619425       9.78924189
        10    1        8.74322906       5.26286350       5.62140593
        11    1        6.93201621       7.76038592       4.43921791
        12    1        8.53129780       3.41678561       2.72198433
        13    1       10.34329343       9.84579476       3.83652279
        14    1        3.59487460       7.69450011       4.03428835
        15    1        1.53871773       8.40318699       5.41456904
        16    1        3.28432962       2.09219263       1.18635547
        17    1       10.43848518       2.84773807       0.04618280
        18    1        6.96062988       2.83969770       5.07823878
        19    1        7.30079838       0.45674424       4.39294246
        20    1        6.19941727       1.70693776       2.20498819
        21    1        0.11798937       1.10726789       1.85874763
        22    1        9.26432414       0.69764921       9.36118453
        23    1        7.88694601       9.28758012       1.88091756
        24    1        3.99392003       9.38940691       1.18763616
        25    1        1.44534892       4.98678764       5.31518375
        26    1        2.11672980       1.96452176       3.96474788
        27    1        7.22634485      10.02049525       7.02666063
        28    1        5.75263233       4.27699976       0.82109856
        29    1        5.42676765       5.53951865       4.98723806
        30    1        7.49741689       6.13939774       1.75944308
        31    1        2.54717247       4.84052327       0.27369077
        32    1        8.15211409       7.05094722       8.55947543
        33    1        2.19784465       7.12256050       7.62115606
        34    1       10.65182298       5.21401488       2.05462321
        35    1        2.22542440       3.17536665       8.13303482
        36    1        0.41781736       6.94543856       9.64880380
        37    1        4.84883350       4.52136102       8.35531475
        38    1        1.34036664       7.91838486       1.85858180
        39    1        7.79377902       3.39109181       9.70398616
        40    1       10.42857801       9.19429906       7.66837828
        41    2        0.12876096       9.50293547       2.13580953
        42    2        4.18121753       0.64091150       0.12311383
        43    2        5.81252235      10.51361650       8.16715896
        44    2        5.18813979       5.59886166       6.91869745
        45    2        3.23149868       4.14481393       9.27085409
        46    2        3.29092703       1.46190844       5.24560541
        47    2        2.47918126       4.01169716       6.60436761
        48    2        8.61803366       5.73312031       7.33524751
        49    2        9.69442786       1.14559951       0.40910392
        50    2        4.98945373       8.31807599       0.16484536
        51    2        4.65519358       2.87102773       7.45899761
        52    2        0.52101891       1.20760243       3.73164753
        53    2        8.88463028      10.15712882       7.66252252
        54    2        5.41754818       3.71639544       5.03145604
        55    2        6.44031993      10.34056851       1.46487214
        56    2        7.43016153       7.75185343       2.69652798
        57    2        7.27656327       9.21151785       5.34662169
        58    2        8.90477273       5.18598369       2.40781666
        59    2        9.78389176       7.81992698       8.72158766
        60    2        4.94132628       2.73796208       1.53079654
        61    2        7.39816378       5.93197805       0.01488342
        62    2        2.67269855       1.39774060       8.34527170
        63    2        2.30072155       7.15602727       9.47299976
        64    2        9.23796738       4.31107658       9.31422731
        65    2        3.21084992       9.11951557       5.17480878
        66    2        1.37218311       8.66048939       7.25523478
        67    2        5.28162609       7.50128615       5.15846427
        68    2        2.66244044       3.73777209       1.68533670
        69    2        0.76803464       6.02241735       8.09407887
        70    2        3.98327811       7.81946433       7.93853615
        71    2        7.46539671       2.09203116       3.46495506
        72    2        4.62763686       6.01922219      10.02209435
        73    2        3.93721148       5.88795629       3.97766302
        74    2        0.53546445       3.33026547       8.47471376
        75    2        8.04903157       8.96972393       0.15177578
        76    2        1.76433055       7.94994127       3.58719531
        77    2        6.11867646       5.21602466       2.28642617
        78    2        2.09073296       6.64621917       5.84610839
        79    2        1.50047484       1.45572499       0.64635522
        80    2        2.70260929       6.34360411       1.61027694
        81    2        2.31239756       8.94463002       0.61249069
        82    2       10.16337515       2.92606058       2.03116547
        83    2        0.03653756       6.86312069       1.18385537
        84    2        6.28745171       4.23117526       9.31407552
        85    2        0.97796068       5.30593887       3.49155254
        86    2        4.23742000       8.91363438       2.85956418
        87    2        8.36994511       3.81668080       4.73016575
        88    2        5.61378863       0.73195217       3.82572150
        89    2        0.54514605       4.55482505       0.40909832
        90    2       10.54702246       9.06149628       5.36191446
        91    2        2.57323804       3.66893997       4.27622192
        92    2        6.91280540       8.05702454       7.66104016
        93    2        7.30457564       6.12241877       4.94902130
        94    2        8.61879095      10.10940228       3.30666679
        95    2        7.40066197       2.97759775       1.27291001
        96    2        0.22669626      10.34490609       9.02996941
        97    2       10.47377386       4.77571697       5.94477555
        98    2        7.25161449       1.35632537       5.97549852
        99    2        3.08656573       1.08002831       2.72365493
       100    2        7.68746861       1.69673157       9.23533127
