 # Al40 O60
 
         100  atoms
           2  atom types
 
      0.00000000      10.14585826  xlo xhi
      0.00000000      10.99452876  ylo yhi
      0.00000000      10.43412089  zlo zhi
      0.13578097       0.02548772       0.20315965  xy xz yz
 
Masses
 
           1   26.98153860    # Al
           2   15.99900000    # O 
 
Atoms # atomic
 
         1    1        2.11121958       4.77995137       3.73866874
         2    1        7.56397741       1.32696866       7.75936489
         3    1        1.15350404       7.63812134       4.31170482
         4    1        3.40205142       7.58138378       9.10869465
         5    1        6.30299016      10.69187180       5.70608954
         6    1        0.35067313       2.21933642       7.45382315
         7    1        1.98131317       1.57735099       4.61885289
         8    1        3.53185435       0.55001205       6.96708258
         9    1        1.42687805       2.51921387       2.08534504
        10    1        9.00363857       5.43467204       7.28032668
        11    1        7.92607349       7.43955674       9.44844946
        12    1        6.72931939       1.65302997      10.36523337
        13    1        7.37491911       1.40696761       4.21890500
        14    1        5.90393554       9.74628026       8.53077677
        15    1        0.70566718       7.00882900       9.69358827
        16    1        9.41257205       3.25605340       9.63761704
        17    1        2.99847173       4.62997822       9.14186013
        18    1        1.92657867      10.16614442       2.24849890
        19    1        4.36000044      10.39206512       0.81106039
        20    1        1.61781947       8.82742947       6.91394035
        21    1        4.41881517       3.10744871       4.75655000
        22    1        2.64199231       5.63863520       1.03499436
        23    1        5.87780761       7.41190292       4.97844838
        24    1        9.24261311       0.53573909       2.15420658
        25    1        3.35806715       9.08630848       4.92301221
        26    1        9.55848981      11.04459430       5.78845732
        27    1        7.27013772       9.77146166       0.66562805
        28    1        5.82233826       4.82876481       0.13320522
        29    1        6.69564260       4.88861351       5.92218269
        30    1        5.81816741       6.81193463       7.96323707
        31    1        5.04696429       5.89904079       2.92051701
        32    1        8.56612759       8.37536048       6.34262799
        33    1        5.83912118       9.43615323       3.19834823
        34    1        9.12637369       6.20697555       4.56248829
        35    1        2.11587248       1.27908655       9.97124378
        36    1        7.27109124       4.42302336       2.95118081
        37    1        4.46078050       2.56211620       1.27268405
        38    1        9.83812675       5.23021505       1.53740918
        39    1        9.24480960       8.38993046       1.94728597
        40    1        3.94823713       4.86114768       6.68401020
        41    2        2.68508724       2.30055457       0.76783339
        42    2        4.73727133       8.35597556       8.29884254
        43    2        9.66379307       6.88483064       6.32236033
        44    2        7.24094854       8.32072551       7.97896546
        45    2        9.01177526       4.30556664       0.33597890
        46    2        8.45578073       4.76626381       5.54248430
        47    2        1.59728837       3.07388507       3.79216688
        48    2        9.76311717       3.87048790       7.86250742
        49    2        9.66565400       7.86706227       3.63372736
        50    2        5.34770005       7.56299567       3.30647045
        51    2        5.97412647       3.08476293       0.28009156
        52    2        0.87989915       1.36551495       5.95225695
        53    2        9.19961602       0.95704345       7.33533171
        54    2        4.00367152       5.95797657       8.33253525
        55    2        7.91463022      10.01636337       6.01821854
        56    2        3.97323751       4.54075480       0.24590364
        57    2        1.72792852       8.08285490       8.53837218
        58    2        5.04516610       0.94556993       0.66811199
        59    2        7.16290286       5.53924858       7.54482381
        60    2        1.33206754       4.53394660       1.86767331
        61    2        4.45692284       2.93743863       3.00084117
        62    2       10.23388060       9.41521361       6.27897588
        63    2        2.16584685       8.93351010       3.55212012
        64    2        7.87223778       2.44075446       9.15603290
        65    2        6.79978463       0.23675985       8.97714887
        66    2        5.18399436       9.13955372       5.08725550
        67    2        7.58232191       7.40669211       5.15102509
        68    2        0.88107149       5.89318800       4.26645047
        69    2        2.76746545      10.13082123       6.27918551
        70    2        5.65499598       9.63444576      10.39137021
        71    2        6.18756011       0.08294749       3.96097844
        72    2        3.32723305       5.71850160       2.70312951
        73    2        8.72986885       5.40696090       2.91663427
        74    2        8.40560227       8.51155521       0.13151354
        75    2        0.09424543       6.95154643       1.01449778
        76    2        6.14290275       5.17271568       4.18899622
        77    2        0.10674969       9.94039162       1.88664953
        78    2        5.18965901       6.40117547       6.24340117
        79    2        0.68051858       2.08661333       9.24308843
        80    2        7.40401143       9.09331881       2.32608765
        81    2        3.01588929       7.24614004       0.36440656
        82    2       -0.05402112       1.87919728       1.43577072
        83    2        3.59646399       1.60334061       5.44849436
        84    2        7.38354435       2.74357949       3.18991652
        85    2        6.94629050       1.44250241       6.01641114
        86    2        2.56499549      10.55815962       0.56690488
        87    2        4.31232568       9.91379733       2.46946509
        88    2        8.99230957       0.60127809       4.02884217
        89    2        1.64655491       5.50257876       9.83219660
        90    2        1.82207179       0.72359929       3.08911331
        91    2        2.37028165       7.73942557       5.69327185
        92    2        3.01660981       0.86502125       8.56547898
        93    2        6.19834017       5.26297974       1.76424331
        94    2        5.26892427      10.76538062       7.13785950
        95    2        2.90450837       3.75870145       7.67707995
        96    2        9.34961204       6.61161245       8.83901875
        97    2        6.39845469       6.49723959       9.72852881
        98    2        5.37087574       3.71246243       6.22364708
        99    2        3.32236308       4.54915620       5.05016679
       100    2        7.75491343       0.42853821       1.06008164
