 # Al40 O60
 
         100  atoms
           2  atom types
 
      0.00000000      10.26461385  xlo xhi
      0.00000000      10.52664999  ylo yhi
      0.00000000      10.31261009  zlo zhi
     -0.20992472       1.22829694      -0.01228182  xy xz yz
 
Masses
 
           1   26.98153860    # Al
           2   15.99900000    # O 
 
Atoms # atomic
 
         1    1        1.22403197       4.41318372       4.72769977
         2    1        9.31046370       1.01816643       6.86248782
         3    1        2.21763932       8.46846953       6.48105603
         4    1        2.54280621       5.73076763       8.49669940
         5    1        7.22081081       8.89252816       5.53723904
         6    1        1.50135641       1.96719988       7.49539632
         7    1        4.52813182       2.09137014       5.41675558
         8    1        4.80482480       0.03058607       7.90190229
         9    1        0.67158092       3.38708536       1.83818738
        10    1        9.99960208       5.89917830       8.75439193
        11    1        5.69882958       7.34491296       0.22805430
        12    1        6.48122996       1.73030924       9.76800951
        13    1        7.61065944       1.33439092       4.43301797
        14    1        7.18251011       9.21209202       8.30933711
        15    1        2.39256776       7.97026957       0.34612554
        16    1        9.96928588       2.22472114       9.87345677
        17    1        4.49433651       2.87835147       7.90805582
        18    1        0.80596306       9.58518942       1.77700081
        19    1        4.11367534       9.98748989       0.77705290
        20    1        4.53885782       7.97949915       6.65616869
        21    1        6.45138267       4.16737569       5.11786510
        22    1        1.35336513       6.32450679       2.56936948
        23    1        6.85594162       6.27593529       3.38578046
        24    1        8.81205257       0.53550475       2.08609035
        25    1        3.33430096       9.95077720       3.86167575
        26    1        0.41031329      10.49178084       4.72192698
        27    1        9.68159498       9.61229935       9.94391376
        28    1        7.44202609       4.23403044       9.81889399
        29    1        8.87074459       3.73892836       6.88690416
        30    1        6.97859292       6.05322152       7.68346697
        31    1        3.95895635       4.93275516       3.40372956
        32    1        9.53638661       8.54065392       6.99778153
        33    1        6.18299425       9.07183123       3.10548186
        34    1        9.86259754       6.39336588       5.55260267
        35    1        1.60798084       1.20726547       0.05084034
        36    1        6.63119553       3.29643690       2.58233171
        37    1        3.62665124       2.14565011       2.27362434
        38    1        8.78121091       5.10576643       1.36443587
        39    1        8.25914015       7.79584391       1.47636471
        40    1        4.05456933       5.21767645       6.36763970
        41    2        2.18002076       2.50788479       1.22523471
        42    2        5.38053149       6.42927502       6.90327120
        43    2       10.33663673       6.92808972       7.28491553
        44    2        7.83123072       7.62023807       7.74192390
        45    2        1.08859151       4.84648177       8.72235766
        46    2       10.14897749       4.57069407       5.92618078
        47    2        1.01341812       3.20005381       3.53916424
        48    2        3.01574962       2.31605582       6.70835957
        49    2        7.67246359       9.41840088       2.19426757
        50    2        6.26744449       7.30525073       1.89084367
        51    2        5.94560230       3.26309483       9.03784423
        52    2        5.29140251       1.26557474       6.78556348
        53    2       10.94810344       1.06812955       6.13650131
        54    2        3.68714776       4.52802770       8.02634857
        55    2        8.16935678      10.00487702       6.81969028
        56    2        4.69291857       3.52739330       2.51107900
        57    2        3.40859124       9.21259093       7.66901024
        58    2        4.59814561       1.21222120       1.06174003
        59    2        8.61750017       4.76177544       8.45555672
        60    2        3.00033272       4.61225824       4.94665020
        61    2        3.73199180       1.26336960       3.93743446
        62    2        0.71489496       9.06220988       5.84799769
        63    2        1.57549717      10.02589309       3.45232299
        64    2        9.85383915       2.39926521       7.94252304
        65    2        6.10335444      10.49990134       9.16210097
        66    2        6.42750176       7.79297298       4.35615076
        67    2        8.78531307       7.83161313       5.41674197
        68    2        0.82883114       6.17947735       4.28136165
        69    2        3.53761234       8.79080518       5.20105837
        70    2        4.14705729       8.26140138       0.18433801
        71    2        6.56604270      10.25774754       4.50756783
        72    2        3.00253136       5.82922623       2.34300140
        73    2        6.93819725       4.49055195       1.19225694
        74    2       10.08399706       9.66024467       8.28105148
        75    2        8.55102408       6.51781791       2.65922439
        76    2        7.49425911       4.49830538       3.66093183
        77    2        9.60993797       8.82246962       0.76884829
        78    2        5.37635368       5.48662024       4.27849557
        79    2        1.51626264       1.69774336       9.25871291
        80    2        7.97915695       8.77853777       9.96933682
        81    2        2.87324688       6.99310816       9.54531272
        82    2        9.35185663       3.30521496       0.89889268
        83    2        6.12046268       2.48141518       4.42863738
        84    2        7.68599550       1.82234573       2.66334025
        85    2        8.30155119       2.18819763       5.95858239
        86    2        1.51533338       7.93724288       1.89827803
        87    2        4.50037474       9.54075784       2.54453197
        88    2        9.33606895       0.38942361       3.98722064
        89    2        0.35149060       5.16958387       1.69727309
        90    2        0.34439145       0.69500334       1.52309795
        91    2        2.90702490       6.78175826       6.78328604
        92    2        2.22694448       9.95013005       0.54336802
        93    2        8.08711672       2.48943251       9.90332209
        94    2        5.87178740       9.09965661       6.99593186
        95    2        4.12057196       1.34540941       9.04713816
        96    2        8.43007738       6.47309493       0.09771116
        97    2        6.66234455       5.90612786       9.52428025
        98    2        7.51645335       4.90043043       6.35017890
        99    2        5.09066346       3.72031775       6.23373334
       100    2        8.36576117       0.65843894       0.28873483
