 # Al8 O12
 
          20  atoms
           2  atom types
 
      0.00000000      11.55338100  xlo xhi
      0.00000000       3.40005900  ylo yhi
      0.00000000       4.96314800  zlo zhi
      0.00000000       0.00000000       1.57675100  xy xz yz
 
Masses
 
           1   26.98153860    # Al
           2   15.99900000    # O 
 
Atoms # atomic
 
         1    1        7.65373365       2.40425613       3.42796195
         2    1       10.91248030       1.67179082       3.54003479
         3    1        5.13578980       4.09339468       3.90468720
         4    1        1.87704315       3.36092937       4.01676005
         5    1        9.67633785       1.61588063       0.94638795
         6    1        6.41759120       0.88341532       1.05846079
         7    1        0.64090070       3.30501918       1.42311320
         8    1        3.89964735       2.57255387       1.53518605
         9    2        7.10135495       4.09487257       2.78412254
        10    2        9.29268473       2.00361580       2.68520203
        11    2        5.75611393       2.39668743       4.04942749
        12    2       11.53280443       3.36849807       3.39529451
        13    2        1.32466445       1.67031293       4.66059946
        14    2        3.51599423       3.76156969       4.75951996
        15    2        8.03738677       1.21524031       0.20362804
        16    2       10.22871655       3.30649707       0.30254854
        17    2        0.02057657       1.60831193       1.56785349
        18    2        5.79726707       2.58012257       0.91372051
        19    2        2.26069627       2.97319419       2.27794596
        20    2        4.45202605       0.88193743       2.17902546
