 # Al16 O24
 
          40  atoms
           2  atom types
 
      0.00000000       4.88643100  xlo xhi
      0.00000000       8.39683800  ylo yhi
      0.00000000       9.02480000  zlo zhi
 
Masses
 
           1   26.98153860    # Al
           2   15.99900000    # O 
 
Atoms # atomic
 
         1    1        3.30387725       1.27992162       1.86694233
         2    1        4.02576925       5.47834062       6.37934233
         3    1        3.33939183       7.05246225       0.14459535
         4    1        3.99025467       2.85404325       4.65699535
         5    1        1.54703917       1.34437575       4.65699535
         6    1        0.84219104       0.25996610       0.05551154
         7    1        3.34982925       1.29214742       7.17207173
         8    1        0.90661375       2.90627158       7.17207173
         9    1        1.53660175       7.10469058       2.65967173
        10    1        4.04423996       8.13687190       4.56791154
        11    1        3.28540654       3.93845290       0.05551154
        12    1        0.86066175       2.91849738       1.86694233
        13    1        1.58255375       7.11691638       6.37934233
        14    1        3.97981725       5.49056642       2.65967173
        15    1        1.60102446       4.45838510       4.56791154
        16    1        0.89617633       5.54279475       0.14459535
        17    2        4.77525492       4.29678796       1.27903978
        18    2        1.67664198       7.04537532       8.17414040
        19    2        0.10147163       6.91862505       1.21718380
        20    2        2.35754659       5.61462130       5.84379264
        21    2        4.11985748       5.54988168       8.17414040
        22    2        1.67349512       1.41610154       7.94301527
        23    2        4.78495937       1.47821295       5.72958380
        24    2        0.76657352       2.84695632       3.66174040
        25    2        4.80076209       6.98063570       5.84379264
        26    2        2.54468713       5.67663195       1.21718380
        27    2        2.55439158       0.09836896       5.79143978
        28    2        3.20978902       1.35146268       3.66174040
        29    2        3.21434806       4.20967076       3.72142140
        30    2        2.52888441       2.78221670       1.33139264
        31    2        0.08566891       1.41620230       1.33139264
        32    2        0.11117608       4.10005004       5.79143978
        33    2        0.77113256       8.38558624       3.72142140
        34    2        0.76972038       5.61452054       3.43061527
        35    2        2.34174387       2.72020605       5.72958380
        36    2        3.21293588       6.98073646       3.43061527
        37    2        2.33203942       8.29846904       1.27903978
        38    2        4.11529844       0.01125176       8.23382140
        39    2        1.67208294       4.18716724       8.23382140
        40    2        4.11671062       2.78231746       7.94301527
