 # Al16 O24
 
          40  atoms
           2  atom types
 
      0.00000000       5.65743679  xlo xhi
      0.00000000       5.65743443  ylo yhi
      0.00000000      11.83568900  zlo zhi
      0.00517178       2.66572041       2.66328464  xy xz yz
 
Masses
 
           1   26.98153860    # Al
           2   15.99900000    # O 
 
Atoms # atomic
 
         1    1        6.94432692       2.71051520       8.87676675
         2    1        5.58869836       5.44673340       7.78878288
         3    1        2.71889723       5.44761108       7.81058422
         4    1        4.15463359       5.68170309       4.94643033
         5    1        4.17369539       2.63901598       6.88925868
         6    1        1.33286021       1.33164232       5.91784450
         7    1        2.73963062       2.87398567       4.04690613
         8    1        5.60943174       2.87310799       4.02510479
         9    1        1.30997008       2.83963885       0.97141417
        10    1        1.38400206       5.61020387       2.95892225
        11    1        4.11897986       4.25207454       1.87093837
        12    1        0.00000000       0.00000000       0.00000000
        13    1        4.11723409       1.38227381       1.89273971
        14    1        7.01835890       5.48108021      10.86427483
        15    1        4.20934912       4.06864453       9.96475063
        16    1        4.21109489       6.93844525       9.94294929
        17    2        4.15014938       4.17890299       7.91947255
        18    2        6.97821033       4.24623727       8.00734071
        19    2        4.15288256       6.80861537       7.99002510
        20    2        2.72060296       5.68283867       5.97886931
        21    2        6.98419821       6.84926697       7.85422240
        22    2        2.73417047       2.63148572       5.86362521
        23    2        5.59415851       5.68923335       5.97206379
        24    2        1.34413076       1.47145210       3.98146660
        25    2        5.60772602       2.63788039       5.85681969
        26    2        4.17544642       1.51210370       3.84566391
        27    2        1.35011865       4.07448180       3.82834829
        28    2        5.47954870       2.81501437       2.07218060
        29    2        4.17817959       4.14181608       3.91621645
        30    2        5.52278855       5.64629168       1.93637790
        31    2        2.84983492       2.81468516       2.00162805
        32    2        4.36148470       4.25731300       0.05421929
        33    2        2.91975446       5.64268337       2.08949621
        34    2        3.97586583       6.93695456      11.77466419
        35    2        4.35246315       1.38376450       0.06102481
        36    2        5.40857452       2.67803569       9.74619280
        37    2        3.96684428       4.06340606      11.78146971
        38    2        5.47849406       5.50603390       9.83406095
        39    2        2.80554043       2.67442739       9.89931110
        40    2        2.84878028       5.50570469       9.76350841
