 # Al40 O60
 
         100  atoms
           2  atom types
 
      0.00000000       9.88322049  xlo xhi
      0.00000000       9.96076894  ylo yhi
      0.00000000      11.28943756  zlo zhi
      0.53292397      -0.86535893      -0.20060948  xy xz yz
 
Masses
 
           1   26.98153860    # Al
           2   15.99900000    # O 
 
Atoms # atomic
 
         1    1        2.74186000       6.11571744       3.85149176
         2    1        5.71314327       9.38367717      10.84874443
         3    1        8.99427200       6.64679861       7.58933129
         4    1        1.08849026       3.49162170      10.41668840
         5    1        2.85579372       9.11124492      10.34622018
         6    1        7.92999259       1.59912275       6.92842210
         7    1        2.36369584       2.35877845       7.24685096
         8    1        8.42239520       0.38094664       0.90992731
         9    1        3.46595329       8.79798433       2.31828047
        10    1       -0.13372341       4.02155637       6.28752355
        11    1        9.05421254       5.31034729       0.30696839
        12    1        5.95534964       2.73565989      10.86616483
        13    1        7.42844057       3.01006236       4.37379940
        14    1        4.66798454       7.87078160       7.37336751
        15    1        0.22442331       9.05165584       8.58459727
        16    1        9.08346401       3.05272171       1.73064899
        17    1        8.22295625       3.92404077       8.86557161
        18    1        9.43058236       0.96687251       3.83730715
        19    1        5.13334219      -0.04999482       3.43355046
        20    1        3.97896094       1.82754318       0.68702798
        21    1        4.80513547       2.65609118       3.26415911
        22    1        8.19908195       7.75995043      10.60317805
        23    1        7.07419890       7.87458486       5.38036068
        24    1        0.30201956       7.98552759       5.20088504
        25    1        1.98701004       6.81365173       6.87399267
        26    1        2.82219753       9.54814227       5.44754706
        27    1        7.04150727       9.66786316       7.96094819
        28    1        4.28441738       4.49575287       0.83971683
        29    1        5.99043955       5.65300944       3.21839072
        30    1        6.18472424       5.45073891       9.09098894
        31    1        2.04923244       6.70490857       0.56149440
        32    1        5.51614945       5.25804662       5.82474309
        33    1        3.56888117       6.79406192       9.72936667
        34    1        1.98096089       3.05843757       4.27051595
        35    1        1.08888311       0.71432013       0.02576713
        36    1        9.81502205       5.36619832       3.57499763
        37    1        3.42286600       4.35349348       8.56355669
        38    1        8.31769551       8.17195489       2.69343300
        39    1        6.09336144       7.33569820       1.18365723
        40    1        5.01462657       2.27673648       6.03133912
        41    2        5.21337162       8.50802054       2.21136272
        42    2        1.42808079       1.98548608      11.25559589
        43    2        8.63276527       7.68497663       6.14834183
        44    2        5.30976418       6.10948528       7.43877174
        45    2        9.28065008       4.07142659      10.26955598
        46    2        8.87385857       2.99064061       7.53707056
        47    2        2.76790671       0.79892475       6.63539673
        48    2        6.53239825       3.57998755       9.32621905
        49    2        9.33624816       9.69249704       2.58595383
        50    2        5.10920307       5.83187216       1.58099982
        51    2        3.61802876       0.31983579      10.75910359
        52    2        1.05940510       9.56709754       4.84253922
        53    2        6.15580610       1.31599043       7.23698512
        54    2        6.26721811       3.62769170       5.86121068
        55    2        6.17568705       8.62082874       6.76040456
        56    2        4.47434794       5.21590831       9.77773976
        57    2       10.16982756       6.79156873       0.37650319
        58    2        6.20238386       0.99316746      11.24192574
        59    2        7.75596054       5.45432282       8.07373125
        60    2        3.69363530       3.33534702       2.00803420
        61    2        7.90936021       3.86177668       0.58967464
        62    2        8.28414265       0.15302019       7.90527568
        63    2        2.61584753       7.15100965       2.30621647
        64    2        4.20330862       2.97814597      11.16452140
        65    2        6.73642505       8.87123641       9.47333272
        66    2        3.75436957       8.34362587       8.80103577
        67    2        6.63083751       6.26603309       4.88125566
        68    2        1.64695176       4.73240619       3.71512123
        69    2        1.34213975       3.11936281       6.01436195
        70    2        2.15380730       7.39084585      10.65087062
        71    2        4.87942931       1.19039720       2.14002827
        72    2        2.74303572       5.05603432       0.04419939
        73    2        8.87971523       4.33119811       4.74694432
        74    2        0.36895653       5.54090416       7.04936392
        75    2        9.12945060       7.61930877       9.04233903
        76    2        1.64491499       6.77527519       5.10529150
        77    2        8.20541436       2.20633385       2.95257380
        78    2        4.35375862       5.64929949       4.39474051
        79    2        2.88174608       9.71207462       0.92157756
        80    2        7.10531865       6.16416029      10.52685638
        81    2        9.48900016       7.15552366       3.67251624
        82    2        0.93779142       1.97863632       3.42711424
        83    2        0.85317233      -0.05952459       9.61844286
        84    2        3.98177815       3.21659913       7.32124914
        85    2        8.41099223       1.64014656       5.27632219
        86    2        3.80927979       9.57057895       3.93227356
        87    2        7.12314823       8.89068597       3.95521539
        88    2        6.19441619       3.87612380       3.29125139
        89    2        2.73589787       5.94668784       8.20595167
        90    2        3.41614231       7.97432052       6.19059650
        91    2        0.94108894       8.19343094       7.19483194
        92    2        9.16870951       9.26734005      11.04998848
        93    2        9.69325888       4.71757132       1.93530482
        94    2        4.72981527       7.69962879      10.90453029
        95    2        1.97338651       3.27076107       8.84009903
        96    2        9.68555709       1.72309697       0.76197235
        97    2        7.30863073       6.64890580       2.31041568
        98    2        5.65837081       1.42812662       4.49913688
        99    2        3.68422857       2.83346714       4.69175117
       100    2        7.76110439       8.70397152       0.83817187
