 # Al40 O60
 
         100  atoms
           2  atom types
 
      0.00000000      10.70168324  xlo xhi
      0.00000000      10.06686819  ylo yhi
      0.00000000      10.23406425  zlo zhi
     -1.70456904       0.42494592      -0.67553173  xy xz yz
 
Masses
 
           1   26.98153860    # Al
           2   15.99900000    # O 
 
Atoms # atomic
 
         1    1        8.00762715      -0.33134357       8.53441471
         2    1        8.18591019       0.04718774       4.12335545
         3    1        2.30539917       3.71309016       2.13486520
         4    1       10.04235938       3.92022265       5.18086894
         5    1        7.17085775       9.80193838       1.38999613
         6    1        1.96606255       8.59614732       1.24913406
         7    1        0.58868802       9.18608836       5.25951486
         8    1        1.66387230       2.15732582       6.28385934
         9    1        2.47794691       1.87617978       9.21642339
        10    1        4.71952456       3.23844962       0.55491276
        11    1        4.23181771       4.37957835       6.55246924
        12    1        2.19201974       9.15206684       8.59609275
        13    1        4.37765995       9.33979887       6.33539113
        14    1       10.41110687      -0.34343155       6.69639345
        15    1        5.67936308       0.40541673       3.35716033
        16    1        5.87523523       6.81147758       7.66227021
        17    1       -0.24489051       2.49607371       0.97095163
        18    1        6.51777394       7.24096892       2.82922129
        19    1        2.35354957       0.72081809       2.52677470
        20    1        4.70062287       8.68927494       0.31874965
        21    1       10.03062546       1.37094854       8.60518203
        22    1        3.83189308       5.41759590       9.54717965
        23    1        7.92722727       6.54506395       9.89748389
        24    1        0.98316589       6.33972399       3.50916484
        25    1       -0.44852419       9.09549237      10.18259499
        26    1        4.34809430       1.65686030       6.42110756
        27    1        0.84591384       4.66646642       8.23521058
        28    1        4.94241754       5.91198120       1.44404427
        29    1        8.67214457       4.74390450       0.22175211
        30    1       -0.34652200       7.34325279       7.67224975
        31    1        6.69449456       2.35787900       7.95558535
        32    1        4.67159320       2.84345385       3.50741871
        33    1        3.98461730       5.43344660       3.95745626
        34    1        2.29680304       6.96229844       6.21158884
        35    1        7.02381204       4.68244460       5.27771441
        36    1        8.66885224       5.00941798       3.00183894
        37    1        0.36819474       5.81565318       0.73019127
        38    1        8.37831816       4.97194631       7.61441982
        39    1        0.02658826       0.87048116       3.87997979
        40    1        7.20599729       2.13118017       1.23362894
        41    2        8.34727531       8.80587146       0.39678347
        42    2        0.59509175       1.55147833       2.29013407
        43    2        6.57086790       2.13797822       9.83708705
        44    2        0.40359259       2.47561457       4.90767889
        45    2        5.44740381       2.17422523       1.95260072
        46    2       10.06895744       2.70351233       9.75896082
        47    2        3.20344714       8.43472479       9.89766299
        48    2        1.51951501      -0.15635089       3.87545510
        49    2        4.99419980       4.28179991      10.21853498
        50    2       -0.72338773       8.51376972       6.31186558
        51    2        2.83200478       0.63167835       6.00577525
        52    2       -0.35768899       5.32855431       4.05286086
        53    2        7.85506792       9.66109338       3.04750927
        54    2        7.39785547      -0.41952216      10.19060141
        55    2        5.81148704       8.72415711       1.86545531
        56    2        0.42749486       1.19418986       7.18907205
        57    2        0.49199465       8.44214517       8.80119650
        58    2        6.93969783       5.98458613       6.56014694
        59    2        3.76194746       7.19745210       0.76629859
        60    2        2.84742677       8.50686262       6.93794612
        61    2        0.48953329       9.71344648       1.09813270
        62    2       10.05081165       4.37798419       6.93007603
        63    2        4.35744145       4.34674665       2.37214567
        64    2        8.95798529       1.43410334       0.93081015
        65    2        8.81631308       6.72935185       8.18327936
        66    2        2.97108705       2.31244206       3.06272548
        67    2        3.62147786       0.79923282       8.46466229
        68    2       -0.26031105       5.18695429       9.51390349
        69    2        5.26775924       4.26029079       4.79092398
        70    2        1.07064114       6.27447059       7.25490778
        71    2        4.85971624       6.69547623       3.14790667
        72    2        1.40657282       7.61776927       4.77177256
        73    2        7.44435567       6.09744944       3.83951818
        74    2        2.29523845       5.14117296       3.34901883
        75    2        9.47655639       0.27212765       5.32189578
        76    2        9.77568286      -0.55007907       8.33788445
        77    2        1.78516374       3.10090897       8.03594301
        78    2        4.99605501       3.05408587       7.48190189
        79    2        3.50965251       5.87557659       5.61895239
        80    2        9.39112178       5.81848492       1.57322795
        81    2        7.32810950       1.08348107       2.97065002
        82    2        7.44036886       3.61864434       6.83141177
        83    2        1.09360145       7.09632972       1.85969660
        84    2        7.98710221       3.77258124       1.66484298
        85    2        2.92339805       2.97694222       0.49497441
        86    2        5.91180278       0.82566882       7.05553276
        87    2        8.40644255       3.83435892       4.43408181
        88    2        2.57106923       9.67158991       2.57835193
        89    2        6.67718955       6.45993212       1.23822957
        90    2        5.62939027       8.56035149       7.28928718
        91    2        7.89947610       4.75124999       9.33172906
        92    2        8.27958002       1.37249874       8.08705562
        93    2        5.04601651       1.50760572       4.62158562
        94    2        4.41725197       5.75677594       7.89583366
        95    2        3.13141687       3.12262603       5.85198613
        96    2        0.70036896       4.06687230       1.39416518
        97    2        6.29727795       7.18995646       9.34899157
        98    2        1.05807818       0.83193421       9.83559001
        99    2        2.13615618       5.17304946       9.63276887
       100    2        4.92531073       9.34598523       4.64221801
