 # Al40 O60
 
         100  atoms
           2  atom types
 
      0.00000000      10.23321526  xlo xhi
      0.00000000      10.15603106  ylo yhi
      0.00000000      10.48906071  zlo zhi
      0.43176043      -0.40706386      -0.13947498  xy xz yz
 
Masses
 
           1   26.98153860    # Al
           2   15.99900000    # O 
 
Atoms # atomic
 
         1    1        9.71844952       3.36143787       6.57105270
         2    1        5.84669588       5.39029477       4.16365740
         3    1        2.17350084       2.19221911       2.18396362
         4    1        3.14911324       5.48455237       9.90594099
         5    1        4.87946635       6.41334115       6.88691891
         6    1        0.85362542       4.95909840       1.75720150
         7    1        1.96802313      10.02530561       9.42483410
         8    1        3.04100490       6.79599892       3.20867604
         9    1        9.95861935       9.36780781       8.09975694
        10    1        8.46084220       7.22469973       3.13492536
        11    1        0.78671473       5.11941496       8.60561434
        12    1        4.71984561       9.52711696       6.55276387
        13    1        1.29110469       7.55796054       0.52958124
        14    1        2.34708179       4.89408127       5.80851708
        15    1        7.96078198       0.06721739       2.26611457
        16    1        6.74354971       2.62342199       7.44070439
        17    1        2.93155083       7.79212332       8.47690297
        18    1        4.89003667       9.92674256      10.45072497
        19    1        4.45288171       3.24111021       5.43786745
        20    1        6.81516671       2.28145085      10.22963697
        21    1        4.67322820       4.33500828       1.85100716
        22    1        0.77123481       9.05763975       3.94407028
        23    1        1.85332824       1.33721741       5.25294709
        24    1        5.71524089       8.16997922       4.16678304
        25    1        8.72998447       5.17410393      10.33676206
        26    1        0.25345105       6.39555634       5.45533918
        27    1        7.94074586       8.35670381       6.00236111
        28    1        3.72595981       1.56860688       7.89549863
        29    1       10.11844203       0.72032485       0.28925504
        30    1        6.75235387       2.32555677       4.21951459
        31    1        9.14137627       0.69526445       5.27699725
        32    1        5.17239256       1.71002841       2.16692519
        33    1        1.20369267       2.75529451       9.59039648
        34    1        3.74059690       9.59433271       3.13365042
        35    1        6.92175544       9.74280256       8.56149116
        36    1        8.04786636       5.57037568       7.36229615
        37    1        9.94772164       3.61963331       3.87067360
        38    1        5.81308155       5.35823701       9.42154253
        39    1        8.22597126       7.99138782       0.01761889
        40    1        7.83706553       4.28079130       2.24544431
        41    2        0.62130735       4.47220993       0.04821496
        42    2        5.75245788       1.54371330       0.35741317
        43    2        4.15514957       0.18875968       1.71242549
        44    2        7.48249047       8.34482373       4.26792160
        45    2        8.54044415       8.73155317       8.99494540
        46    2        1.14879506      10.03710404       5.34964931
        47    2        6.21872038       3.62700105       9.05704022
        48    2        1.16614740       3.52864003       2.81800437
        49    2        2.22418122       8.52819341       3.12325481
        50    2        6.54631911       9.00112800       6.89195439
        51    2        2.54701953       3.11757296       5.46868525
        52    2        2.40261506       1.46934454       9.09703124
        53    2        6.40754522       5.99158210       7.74900474
        54    2       -0.16616895       0.68578054       9.02802381
        55    2        7.56446596       1.58577470       5.68430982
        56    2        1.27293354       9.33832592       0.42667558
        57    2        3.67086487       2.91436307       1.65838952
        58    2        1.79439676       6.66427506       9.60516319
        59    2        9.23875598       0.06320491       3.52084339
        60    2        4.97567015       2.48551379       7.00254769
        61    2        3.00576969       0.71346341       6.51194412
        62    2        0.39876874       3.32252908       8.04069094
        63    2        4.03677053       4.96957406       6.23535430
        64    2        8.07619916       3.80762713       7.01891598
        65    2        1.97755308       6.15174086       4.57593434
        66    2        6.34456800       8.90766492      10.11193460
        67    2        2.08050891       6.28233399       1.68493303
        68    2        0.00551347       2.20187987       5.29186780
        69    2       10.01025841       7.53916860       4.10058154
        70    2        1.23824619       1.86107426       0.66554779
        71    2        1.30262811       5.84108876       6.99872401
        72    2        8.50759137       0.97849164       0.82404316
        73    2        4.76523170       9.52484070       4.73198869
        74    2        4.25680806       5.30776652       3.26514222
        75    2        6.17532685       3.93678968       5.05710552
        76    2       10.10554706       4.64027593       5.31535123
        77    2        9.87714657       6.95456618       0.47085299
        78    2        9.52190121       5.20633868       2.57389393
        79    2        7.15153596       6.16083559      10.32202776
        80    2        1.42453157       8.79443241       8.15285508
        81    2        7.20630661       5.87698585       3.07452054
        82    2        8.28065456       3.80006970       0.55074502
        83    2        9.21020724       9.51247805       6.49268547
        84    2        4.85171070       2.15250645       4.04300562
        85    2        2.33172501       4.14025394       9.23866618
        86    2        4.69423629       0.17297119       8.39263847
        87    2        2.26318268       0.99446070       3.47581543
        88    2        8.30320747       8.46960722       1.80172924
        89    2        8.34455283       3.06514417       3.48071508
        90    2        6.17616017       3.52935753       2.22093441
        91    2        4.54338433       7.84768080       2.88645640
        92    2        8.77985548       6.77613797       6.26593106
        93    2        4.93979528       5.27051081       0.39767386
        94    2        7.16989190       1.30722882       8.64493657
        95    2        3.40168469       8.99002020       9.80475921
        96    2        5.65366830       6.77115099       5.25711355
        97    2        3.91328924       7.97770247       6.98020369
        98    2        9.25468535       5.55732277       8.64608197
        99    2        6.65231702       0.94558755       2.95084329
       100    2        4.18462833       6.28304796       8.71787718
