 # Al6 O9
 
          15  atoms
           2  atom types
 
      0.00000000       4.98827623  xlo xhi
      0.00000000       4.31997380  ylo yhi
      0.00000000      14.53365100  zlo zhi
