 # Al40 O60
 
         100  atoms
           2  atom types
 
      0.00000000      10.62159774  xlo xhi
      0.00000000      10.11948770  ylo yhi
      0.00000000      10.01966609  zlo zhi
     -0.41454402      -0.28394893      -0.57552475  xy xz yz
 
Masses
 
           1   26.98153860    # Al
           2   15.99900000    # O 
 
Atoms # atomic
 
         1    1        8.14416309       3.37142672       6.30446268
         2    1        6.33237961       5.30158390       6.50764708
         3    1       -0.50118595       7.23564302       7.23640505
         4    1        7.21509023       4.05116423       9.44294192
         5    1        8.10466601       6.43940114       4.58173660
         6    1        0.75328349       4.10874472       7.52848222
         7    1        3.26445925       3.18767885       3.57175035
         8    1        9.46584199       2.81273804       9.94254903
         9    1        4.62390379       5.50941825       0.80796283
        10    1        7.31866964       8.16273139       7.14676280
        11    1        3.32350963       6.38853462       3.23640425
        12    1        4.46711858       0.52426068       7.85209158
        13    1        5.86846319       1.69977956       2.60612126
        14    1        7.22036444       0.59331176       5.24048506
        15    1        4.34132854       6.79400921       8.02439878
        16    1        1.91211574       7.53837018       0.98142950
        17    1        2.19802738       0.95074051       6.00156647
        18    1        1.19669557       0.95374044       8.99353505
        19    1        1.80631481       8.53085790       8.61727935
        20    1        5.73178434       8.01760346       4.53135361
        21    1        5.14962995       2.45026183       5.49728519
        22    1        0.20863533       7.10619742       3.16814708
        23    1       10.08586849       4.56955753       5.04180359
        24    1        0.34618499      -0.14725036       4.28292040
        25    1        2.94935636       9.80981397       3.16994220
        26    1       10.08451530       1.52667446       7.04909200
        27    1        8.35784214       9.24498392       2.69240051
        28    1        6.82010269       3.95823771       3.43235886
        29    1        7.21490165       0.94247258       8.23140147
        30    1        2.86225295       5.01467950       5.94785044
        31    1        9.16976911       2.08901861       2.98151206
        32    1        5.16684227       9.47280884       0.13079472
        33    1        6.59319543       6.78072719       1.90618626
        34    1        4.04682365       3.80834067       8.13672014
        35    1        1.18779813       2.10372385       2.10004666
        36    1        9.08429641       8.99102984       9.51428726
        37    1        3.87328751       2.07051726       0.28406415
        38    1        2.08279846       4.30963989       0.92676661
        39    1       -0.44589073       5.81480840       9.55671633
        40    1        2.48072200       8.21585216       5.59633209
        41    2        2.97419280       1.44583558       2.74910771
        42    2        2.49037401       4.27664537       7.58862116
        43    2        8.71702277       7.61413606       6.14261872
        44    2        6.10812682       6.85984432       7.61392622
        45    2        9.86736427       3.27966956       6.92973433
        46    2        8.22840572       1.45235999       6.57693186
        47    2        9.28063946       3.15388264       4.39038152
        48    2        0.25578020       0.47459577       5.88618450
        49    2        5.07713113       3.22999915       3.19251841
        50    2        1.78577330       3.71112626       2.62116569
        51    2        4.31371961       2.17287635       8.70862725
        52    2        1.72375060       9.72387594       4.52089819
        53    2        5.74918940       0.95797868       4.22440434
        54    2       -0.14803245       5.60116766       7.73106243
        55    2        1.08328850       8.09394642       6.87587011
        56    2        6.69181108       3.36078545       5.15463886
        57    2        4.02252637       8.44913587       4.17785187
        58    2        1.98911177       2.32751378       0.47997267
        59    2        7.02381943       4.12723975       7.68620679
        60    2        1.10452690       4.57206610       5.64961658
        61    2        5.12819369       0.92934369       1.17824680
        62    2        0.21390499       9.40142791       9.16883843
        63    2        2.68948246       8.88089932       1.73689359
        64    2        7.87203463       9.51149322       8.23046303
        65    2        5.78900702       1.33510283       6.78849371
        66    2        7.18380362       7.99051216       3.30008674
        67    2        6.25388696       6.42789370       5.10707811
        68    2        8.35627009       5.10256089       5.79789772
        69    2        1.82950103       7.15346547       3.95224436
        70    2        2.96857169       0.16720726       9.07214063
        71    2        6.12475087       8.22038728       0.85747771
        72    2        6.44171399       5.35539007       0.64671494
        73    2        7.43109182       2.54973198       2.47560188
        74    2        9.21043133       7.33223230       8.87473317
        75    2        9.84327034       6.03996709       4.08283949
        76    2       10.10222794       2.75945527       1.53657371
        77    2        9.88456651       8.59807795       3.45481293
        78    2        3.41086526       4.92533771       4.24644210
        79    2        0.59376751       4.01707534       9.63549876
        80    2        7.47966258       5.52354607       3.03500185
        81    2        3.67000503       8.08573718       8.99276364
        82    2        8.83595831       4.55018869       9.90178031
        83    2        4.26722764       5.32961918       9.05959160
        84    2        8.72363276       9.74816062       1.09491284
        85    2        3.44036586      -0.27159915       6.59711247
        86    2        2.75155574       6.00197407       1.42880008
        87    2        4.91773184       6.37057057       2.42134940
        88    2        8.42889715       0.48453170       3.83005413
        89    2        3.87269249       3.87476630       0.79024826
        90    2       10.05231150       1.47521000       8.86344451
        91    2        1.29725948       6.97302338       9.33115862
        92    2        3.39756232       6.76112726       6.43891467
        93    2        7.64371840       2.27306061       9.40780776
        94    2        6.45479913       9.05781595       5.80173184
        95    2        1.46346071       1.82672946       7.43645900
        96    2        0.25821787       6.95094281       1.41046509
        97    2        5.84540042      -0.13280817       8.81667842
        98    2        4.72487850       4.25951389       6.50339914
        99    2        3.31822918       2.28306048       5.25314691
       100    2        0.20003764       1.14011467       3.15627518
