 # Al12 O18
 
          30  atoms
           2  atom types
 
      0.00000000       5.22317900  xlo xhi
      0.00000000       4.81501100  ylo yhi
      0.00000000      19.81729100  zlo zhi
     -2.32163100      -2.24553300      -1.59407000  xy xz yz
 
Masses
 
           1   26.98153860    # Al
           2   15.99900000    # O 
 
Atoms # atomic
 
         1    1       -0.41774886       2.88529433      19.34843371
         2    1        4.65548070      -0.10652512       2.80248202
         3    1        0.89745616       0.41060745      10.38424067
         4    1        2.00156627       0.41517901       4.42446784
         5    1        0.57786782       0.87232712       7.29232711
         6    1        3.27773890       0.50516379       9.05907824
         7    1       -2.98715987       2.92656337      15.61241856
         8    1       -0.37158523       2.77573484      11.08605021
         9    1       -3.25664981       3.14473238      12.32964467
        10    1       -0.65339006       3.19223164      14.30340722
        11    1       -1.75884595       0.51184058      16.26769711
        12    1        0.79360263       0.52003167      17.65960417
        13    2       -1.33379024       4.36713518       3.37534046
        14    2        1.93172534       4.31672534       1.21412615
        15    2        3.60319143       0.59856806       3.93523838
        16    2        1.38271140       1.10188283       5.84372277
        17    2        1.56674956       1.07726329       8.70262462
        18    2       -0.99694542       0.31364758       7.61770721
        19    2       -0.79363751       1.27900874      10.18862419
        20    2        2.49307022      -0.69495789      10.07824188
        21    2        1.32928593       1.73389468      11.45810003
        22    2       -2.03042155       3.69337134      11.16702366
        23    2       -2.43286400       3.45760146      13.87307475
        24    2        0.18549301       3.39454650      12.76330645
        25    2        2.89996353      -0.98333994      15.41091635
        26    2       -1.27791074       1.89741661      15.29978098
        27    2       -0.27075180      -0.47525867      16.63802282
        28    2        1.88440071      -0.40006375      18.62872916
        29    2        1.91403232       1.42442861      16.59460314
        30    2       -0.45537130       1.51926792      18.33067710
