 # Al4 O6
 
          10  atoms
           2  atom types
 
      0.00000000       6.14151146  xlo xhi
      0.00000000       2.85540691  ylo yhi
      0.00000000       5.50137000  zlo zhi
