 # Al40 O60
 
         100  atoms
           2  atom types
 
      0.00000000      10.37837621  xlo xhi
      0.00000000      10.48361439  ylo yhi
      0.00000000      10.47890710  zlo zhi
      0.28356861      -1.18416765      -1.29825481  xy xz yz
 
Masses
 
           1   26.98153860    # Al
           2   15.99900000    # O 
 
Atoms # atomic
 
         1    1        6.31672729       3.20742903       7.14508640
         2    1        7.00219644       6.44745056       6.95835541
         3    1        1.57494595       6.12039659       6.93886098
         4    1        5.42123269       3.59287220      10.10039462
         5    1        8.26970009       7.26873274       4.06799295
         6    1        1.98631765       3.82949716       4.98757489
         7    1        4.30603252       4.20283531       2.62566852
         8    1        9.08786589       1.55637159       1.52603580
         9    1        4.20128349       6.60599635       0.55012303
        10    1        8.51487745      -0.14580285       8.73750314
        11    1        4.77900566       5.29915875       4.99653970
        12    1        3.27220576       8.37563936       8.57278834
        13    1        5.66379932       1.79866358       2.33786356
        14    1        9.32446895       7.96882032       7.09087943
        15    1        6.09674243       7.90680428       9.22734196
        16    1        0.51665678       7.40854758       9.48751163
        17    1        1.23116052       1.35087091       4.76568288
        18    1        0.05102733       2.75388363       8.21862308
        19    1        1.67906690       9.00312513       5.78979778
        20    1        4.80765472       8.42832738       5.89271323
        21    1        5.62476594       0.06757486       7.36730074
        22    1        1.23416557       6.94646227       1.07734702
        23    1        8.64754160       3.80229982       5.73791483
        24    1        9.96404362       9.85820278       4.12309429
        25    1        2.95430074       8.96054661       3.11686918
        26    1        8.36666607       0.88465378       5.90860931
        27    1        9.57540028       9.59271291       0.74787195
        28    1        7.58595565       4.31209613       2.66087870
        29    1        5.20147021       0.48191892      10.35476851
        30    1        4.31667066       5.47753205       7.91473603
        31    1        6.65395109       9.81779289       4.11854319
        32    1        5.11720275       9.63709955       1.20615186
        33    1        6.12105972       6.91593362       2.43535460
        34    1        3.31274890       2.90104143       7.24604417
        35    1        3.25912623       1.27914097       1.14236749
        36    1        0.82686457      -0.30091781       8.74260930
        37    1        2.54912395       2.40591314      10.08023372
        38    1        0.10030162       3.99142206       3.02995073
        39    1        9.70369720       4.54028069       0.41491526
        40    1        0.85331705       6.84609910       3.92292526
        41    2        1.28902736      -0.43999406       4.17882898
        42    2        3.49818343       4.31192045       4.22609440
        43    2       -0.28287422       3.52839933       6.66393795
        44    2        7.64083347       7.85716014       7.95741651
        45    2        7.49226992       2.41189328       5.95594442
        46    2        7.53177450       0.18887588       7.31560588
        47    2        8.84168497       3.84673990       3.88917385
        48    2       -0.43707396       1.08754646       5.14694712
        49    2        3.91198262       2.44855937       2.28139262
        50    2        0.82685592       5.12035733       4.22996510
        51    2        1.89204602       2.60456834       8.43818353
        52    2       -0.17849962       9.11699226       5.93358987
        53    2        5.55595823      -0.62667104       5.65494777
        54    2       -0.73237581       3.44764395       9.61326847
        55    2        2.32866589       4.58649010       6.59900131
        56    2        5.92160987      -0.42216663       9.10909053
        57    2        3.47883647       8.68514829       4.80276301
        58    2        1.52037242       0.81213700      10.19638361
        59    2        6.62130639       3.25542346       8.86262705
        60    2        1.52453965       7.21300198       5.52963094
        61    2        5.53355894       0.08643413       2.81592744
        62    2       -0.44434396       0.97185745       8.31787771
        63    2        0.47212210       8.42035633       0.32712916
        64    2       -0.40552933       8.96920323       8.58567603
        65    2        4.90112631       1.77052775       7.27481055
        66    2        6.82285079       8.19026984       3.54497120
        67    2        5.45239578       6.76738854       5.81315799
        68    2        7.38874778       4.75206524       6.57348894
        69    2        1.93744497       7.52667406       2.66042234
        70    2        3.32756420      10.18430601       1.88034358
        71    2        7.99811388       9.06889667       0.36080700
        72    2        5.06488589       5.78308282       3.30000202
        73    2        6.04968303       3.44844333       2.98108539
        74    2        0.16346051       6.68300348       7.85009207
        75    2        8.40556097       7.00114777       5.78599027
        76    2        9.99200084       3.07040135       1.54202703
        77    2        9.83325032       7.95815010       3.58024582
        78    2        4.84236136       4.27101116       6.54528811
        79    2        3.61606049       4.88394249       1.02126590
        80    2        7.65324589       6.02409122       3.00676332
        81    2        4.31962396       7.84685572       9.97622554
        82    2        7.95725498       4.48869563       0.90271593
        83    2        5.96742925       6.23979786       0.72999955
        84    2        8.31881042      -0.48673081      10.45943048
        85    2        1.91731800      -0.87088006       7.38551685
        86    2        1.43640712       5.91367365      10.39879690
        87    2        4.63095373       8.00003412       1.88838687
        88    2        7.94870681      -0.14184802       4.49823623
        89    2        4.34591348       2.03568540      10.30275373
        90    2        7.31295893       1.77513800       1.43679418
        91    2        1.80715710       8.66884572       9.64677907
        92    2        3.01778246       6.74035208       7.82281537
        93    2        3.87944142       4.13523306       8.97494553
        94    2        4.72054845       8.88653533       7.59940434
        95    2        2.42468276       2.15676018       5.79877831
        96    2        0.21139965       5.58836787       1.68670783
        97    2        4.99425241       0.92208479       0.61865718
        98    2        5.80522963       6.27690103       8.37099079
        99    2        1.21309686       2.74019266       3.67587727
       100    2        9.53935274       0.00501308       2.34165535
