 # Al40 O60
 
         100  atoms
           2  atom types
 
      0.00000000      10.54834411  xlo xhi
      0.00000000      10.40548885  ylo yhi
      0.00000000       9.87741733  zlo zhi
     -0.15456091      -0.18924444       0.64588860  xy xz yz
 
Masses
 
           1   26.98153860    # Al
           2   15.99900000    # O 
 
Atoms # atomic
 
         1    1        5.20802670       2.89008642       7.66757999
         2    1        8.03635164       1.32955007       3.80668532
         3    1        2.14013443       3.13452782       6.46150486
         4    1        1.61770145       4.69291535       3.59688631
         5    1        8.03800500       3.27255968       1.54416549
         6    1        3.74095563       9.61722332       4.70611396
         7    1        0.93228666      10.40302871       6.63149126
         8    1       10.29268071       3.00156761       4.69857275
         9    1        5.08452895       3.54872398       0.46183514
        10    1        7.14414535       5.18053449       8.54455814
        11    1        4.52497926       4.91431797       5.68666888
        12    1        2.16299097       8.43367232       8.91377037
        13    1        5.89982241      10.64216198       6.20865700
        14    1        9.35149688       9.06419562       4.46721726
        15    1        5.70030552       1.01108046       9.40754069
        16    1        7.22472010       8.01752665       8.56896099
        17    1        2.42710708       2.37112655       1.50479697
        18    1        6.68667710       9.84663632       1.93152155
        19    1        2.44130506       1.16353393       3.88042084
        20    1        3.32028375       9.88843453       1.33857456
        21    1        8.70112486       2.04839033       9.74782453
        22    1        4.49665894       6.88303537       8.69076318
        23    1        9.23987661       8.54601689       0.61002169
        24    1        1.07425519       7.85171846       2.18836917
        25    1        0.94024643       0.89997810       9.60493267
        26    1        5.19085174       2.00840003       3.74144469
        27    1        0.53450011       5.86663633       7.77028300
        28    1        6.32963971       7.12298017       1.56415097
        29    1       10.30543934       2.72935294       7.65431985
        30    1        8.63691341      10.12207200       7.47002621
        31    1        9.70226962       5.62928258       0.50621191
        32    1        5.92099310       4.96919957       3.18099687
        33    1        3.66133856       6.56374758       3.57803506
        34    1        3.03360508       7.44837469       6.53135865
        35    1        8.22260167       6.49122323       6.17508613
        36    1        6.28318770       7.84976527       4.49730822
        37    1        2.23228816       5.01002599       0.69790087
        38    1        7.58062505       3.40218154       5.62677321
        39    1       10.19008055       0.62742998       2.48366691
        40    1        8.74185818       5.02603743       3.48772297
        41    2       10.21261830      10.01881812       0.88531124
        42    2        1.28501009       1.28801602       2.51437609
        43    2        5.14879172       2.70963961       9.43831813
        44    2        1.62709809       2.88139302       4.73358839
        45    2        6.23214828       3.64630402       1.83926786
        46    2        9.34349156       3.15996935       6.20000251
        47    2        5.72251462       7.88716392       9.61693986
        48    2        2.09275188      10.38283460       5.32162295
        49    2        5.43020632       5.34101191       9.13969150
        50    2        9.03018690       1.34858506       8.05683587
        51    2        1.16881511       1.73244007       7.06246273
        52    2       -0.09146012       4.74611915       4.13934637
        53    2        9.88150049       1.37675463       4.15516515
        54    2        2.67247727       0.82614884       0.42843554
        55    2        7.65125568       8.36740693       1.25639642
        56    2        7.48146496       0.30099528       0.25705584
        57    2        2.19484059       8.54222391       0.86560816
        58    2        7.99537288       6.50817395       9.54172510
        59    2       10.25675826       7.20256127       1.20134296
        60    2        3.65258614       8.51834955       7.85048674
        61    2        3.17229248      10.00147376       3.06959846
        62    2        9.49354829       6.07965830       7.20865562
        63    2        4.76563879       5.99913600       2.19220339
        64    2        7.91512165       3.76961854       9.55790471
        65    2        9.83529095       9.77135731       6.12601986
        66    2        3.33410764       3.58761814       0.43814258
        67    2        1.14538474       9.93836633       8.38619331
        68    2        0.49253210       5.80676947       9.58318882
        69    2        5.36842785       6.26040197       4.61871679
        70    2        1.45583805       7.33796966       7.36942718
        71    2        5.85633924       8.39869239       2.86022349
        72    2        3.07181502       5.12477204       4.56314180
        73    2        8.07942542       7.85886128       4.98123658
        74    2        1.58712755       3.93264040       2.01915647
        75    2        8.38366243      10.02385814       3.24413213
        76    2        8.99765870       1.76090507       1.68885435
        77    2        1.03933827       4.21627574       7.31566677
        78    2        8.16086789       3.21214789       3.70770007
        79    2        5.54406300       3.70047466       4.47669524
        80    2        0.19524169       8.74609471       3.44320694
        81    2        6.45805949       1.03270104       2.89174845
        82    2        7.22109649       1.49391004       5.45496759
        83    2        2.02229107       6.39078704       2.64378488
        84    2        7.90829965       5.15540042       5.10485591
        85    2        3.85489491       3.44923850       6.68212389
        86    2        4.58301349       0.95087141       5.04427425
        87    2        6.58181599       3.89597822       7.10779820
        88    2        5.00039540       9.85066962       0.82551760
        89    2        7.32640893       6.00373050       2.72951968
        90    2        6.98943993       9.57093202       7.29569681
        91    2        6.90014049       6.70203052       7.33193350
        92    2        8.85337285       8.91126182       8.76441602
        93    2        3.15432068       7.86587705       4.79977064
        94    2        4.07662106       6.10784479       6.99718960
        95    2        3.64517253       2.20409639       2.87578526
        96    2        9.23598514       4.56767088       1.80813345
        97    2        5.41755045       1.11258904       7.64135821
        98    2        0.04560776       2.49981709       9.44357736
        99    2        2.92285177       6.89663358       9.65408181
       100    2        5.38574224       9.12116925       5.35063480
