 # Al40 O60
 
         100  atoms
           2  atom types
 
      0.00000000      10.02485596  xlo xhi
      0.00000000      10.02440582  ylo yhi
      0.00000000      10.94706958  zlo zhi
      0.11878910       0.72452622      -0.19343909  xy xz yz
 
Masses
 
           1   26.98153860    # Al
           2   15.99900000    # O 
 
Atoms # atomic
 
         1    1        8.19089729       4.72861465       8.37570529
         2    1        8.24164741       8.23506035       3.55373078
         3    1        6.15455276       6.90477263       8.07859865
         4    1        0.77069359       6.75439328       1.60545902
         5    1        8.58334455       4.85332854       2.19394907
         6    1        2.60871433      -0.04211549       5.09294995
         7    1        1.14964212       5.63467555       7.44806506
         8    1       10.00067709       3.33906647       6.08879305
         9    1        5.82460026       3.57097523       1.99950361
        10    1        7.67571513       2.27196959      10.11161977
        11    1        5.10736390       4.75807675       5.53053662
        12    1        2.91984879       2.47750823       6.89910981
        13    1        7.29109701       2.89881408       6.61659890
        14    1        7.77941113       7.97986052       6.10225554
        15    1        5.64239111       0.42993183       0.43324079
        16    1        1.32509138       8.78499252       7.43399699
        17    1        3.46835386       1.48501139       2.46951516
        18    1        8.51174500       9.01633741       9.06553028
        19    1        4.29936887       4.42254249       8.06649798
        20    1        5.18724244       9.01539819       3.31511356
        21    1        6.09135926       1.01071633       8.30373641
        22    1        2.77625453       4.84392581      10.06920053
        23    1       10.16479705       6.29310657      10.23019307
        24    1        1.07316250       9.05820635       3.01887338
        25    1        3.18819489       6.70695959       3.47677025
        26    1        5.34457629       1.81987641       4.91532740
        27    1        9.98853432       2.61509357       0.04058670
        28    1        6.17834760       5.14751934      10.77582380
        29    1        1.96388700       9.35831131      10.76267342
        30    1        9.43246723       0.68134897       4.98830692
        31    1        8.60020990       0.51759761       1.59099958
        32    1        5.65039502       6.32702946       2.62370135
        33    1        4.79071870       8.90689583       6.39755121
        34    1        3.91161879       1.96324249      10.19710358
        35    1        3.78063359       8.85886594       8.85494775
        36    1        7.29287259       7.93979906       0.50205385
        37    1        3.06461502       4.11580035       1.92750976
        38    1        9.59496571       1.44912918       8.11547954
        39    1        0.47820412       3.33154704       3.16960237
        40    1       10.31037110       6.37120726       4.76616767
        41    2        9.83902981       7.61824759       2.97838991
        42    2        2.16095121       2.99849680       2.96036983
        43    2        7.84104622       0.75404572       8.83985787
        44    2        8.80321891       1.75818981       6.51136242
        45    2        5.87107987       0.33882842       4.17923199
        46    2        8.53343372       4.25343577       6.69099606
        47    2        2.58793406       5.10660181       8.33499073
        48    2        3.05406926       9.12703413       7.05689255
        49    2        6.41940648       3.80958892       0.25538462
        50    2        0.82640049       7.22333909       6.85251350
        51    2        3.29891396       0.24496223      10.17406919
        52    2        1.12718944       2.43848200       7.25738255
        53    2        9.91456194       2.44939773       4.53417802
        54    2        6.22730194       6.62012973       0.87334068
        55    2        4.68601443       7.35374242       8.91752568
        56    2        8.34552193       9.34614517       5.07493710
        57    2        4.61024583       0.15996549       1.81464110
        58    2        9.41413294       3.24435249       1.65227876
        59    2        9.36532209       7.84539571      10.21949515
        60    2        2.01520820       8.42647136       9.24515637
        61    2        2.31937955       0.25592482       3.28778694
        62    2        9.52083043       2.48297593       9.67393010
        63    2        4.28311894       7.60939469       2.47304220
        64    2       10.06911493       9.74622663       8.24468781
        65    2        8.61446520       6.84791885       5.05840210
        66    2        5.77129763       1.41457370      10.07789021
        67    2        9.87649991       5.32253944       8.77974773
        68    2        2.22894116       3.18767989      10.56061000
        69    2        1.78455702       7.42372869       4.22964905
        70    2        3.91133169       2.55571276       8.44988876
        71    2        7.17722158       1.40604251       0.81706420
        72    2        3.72682469       3.95484213       6.33918921
        73    2        4.63092953       4.90574003       1.61896891
        74    2        9.88449173       5.00566302       3.42098344
        75    2        9.58612117       0.31323545       3.10612667
        76    2        9.97265854       0.82125456       0.38094138
        77    2        1.32805914       8.53193245       1.27785483
        78    2        4.52424274       5.68508537       4.15759894
        79    2        4.83137315       2.58388146       3.15935012
        80    2        1.01938563       9.87503406       5.61858915
        81    2        6.93608322       4.76280850       2.75991246
        82    2        6.09888088       1.57431407       6.65882470
        83    2        2.18944725       5.69549761       2.19085203
        84    2        6.27073936       3.45073934       5.19319282
        85    2        6.01933248       7.66494743       6.32157876
        86    2        7.22885210       3.17835712       8.52094061
        87    2        5.63560791       5.28995927       7.20917056
        88    2        7.91651234       8.98422827       1.80242286
        89    2        7.10075309       5.78871999       9.28920103
        90    2        6.55030823       7.68834567       3.45012081
        91    2        5.20613969       9.66767362       7.99802384
        92    2        7.85233424       7.89260235       7.87212334
        93    2        0.89398243       4.88403123       5.84278777
        94    2        4.57012354       4.66905397       9.95027146
        95    2        3.53823446       1.43331956       5.57984058
        96    2        8.99084208       6.08099309       0.99618585
        97    2        7.13256586       8.91807731      10.44204623
        98    2        1.81028417       6.08019387      10.78904173
        99    2        3.50229217       2.57257855       0.96666981
       100    2        4.06328942       8.82026191       4.78976802
