 # Cd1 Te1
 
           2  atoms
           2  atom types
 
      0.00000000       4.52794961  xlo xhi
      0.00000000       2.96621005  ylo yhi
      0.00000000       4.24222208  zlo zhi
