 # Cd1 Te1
 
           2  atoms
           2  atom types
 
      0.00000000       4.68744479  xlo xhi
      0.00000000       4.05944627  ylo yhi
      0.00000000       3.82728264  zlo zhi
