 # Ni4 O6
 
          10  atoms
           2  atom types
 
      0.00000000       5.49241426  xlo xhi
      0.00000000       4.80181803  ylo yhi
      0.00000000       5.01754800  zlo zhi
