 # Ba2 Cu3 O6
 
          11  atoms
           3  atom types
 
      0.00000000       4.49436725  xlo xhi
      0.00000000       4.31741478  ylo yhi
      0.00000000      11.58664200  zlo zhi
     -1.24870598       0.65961832       0.87743164  xy xz yz
 
Masses
 
           1   137.32700000    # Ba
           2   63.54600000    # Cu
           3   15.99900000    # O 
 
Atoms # atomic
 
         1    1        0.37948760       0.42532699       2.90518827
         2    1        3.60213467       4.71212803       8.68145374
         3    2        0.60841607       3.60795731       5.79332100
         4    2        0.34495089       3.11936671       0.00000000
         5    2        3.34462866       1.55098117       5.79332100
         6    3        2.60531359       0.42020292       4.52463005
         7    3        4.22547602       2.57536104       7.06201196
         8    3        1.39124547       4.73911201      10.06947551
         9    3       -0.26070300       2.54167177       1.51716649
        10    3        1.34668052       4.73309331       7.02450600
        11    3       -0.26730309       2.58615432       4.56213601
