 # Co2 F4
 
           6  atoms
           2  atom types
 
      0.00000000       3.21855600  xlo xhi
      0.00000000       4.74679700  ylo yhi
      0.00000000       4.74679700  zlo zhi
 
Masses
 
           1   58.93319500    # Co
           2   18.99840320    # F 
 
Atoms # atomic
 
         1    1        0.00000000       0.00000000       0.00000000
         2    1        1.60927800       2.37339850       2.37339850
         3    2        0.00000000       3.30240838       3.30240838
         4    2        1.60927800       3.81778712       0.92900988
         5    2        0.00000000       1.44438862       1.44438862
         6    2        1.60927800       0.92900988       3.81778712
