 # Zn1 S1 O4
 
           6  atoms
           3  atom types
 
      0.00000000       5.55705320  xlo xhi
      0.00000000       4.81254924  ylo yhi
      0.00000000       4.53731494  zlo zhi
