 # Li2 V2 Cu2 O8
 
          14  atoms
           4  atom types
 
      0.00000000       6.16601131  xlo xhi
      0.00000000       6.09250906  ylo yhi
      0.00000000       4.01025961  zlo zhi
