 # Li2 V2 Cu2 O8
 
          14  atoms
           4  atom types
 
      0.00000000       6.07695958  xlo xhi
      0.00000000       6.04668324  ylo yhi
      0.00000000       4.07660798  zlo zhi
