 # La4 Cu4 O10
 
          18  atoms
           3  atom types
 
      0.00000000       3.92537400  xlo xhi
      0.00000000       5.48569700  ylo yhi
      0.00000000      10.54424800  zlo zhi
 
Masses
 
           1   138.90547000    # La
           2   63.54600000    # Cu
           3   15.99900000    # O 
 
Atoms # atomic
 
         1    1        1.96268700       1.06468053       9.09965439
         2    1        1.96268700       4.42101647       1.44459361
         3    1        1.96268700       3.80752903       6.71671761
         4    1        1.96268700       1.67816797       3.82753039
         5    2        0.00000000       1.11790276       6.37881664
         6    2        0.00000000       4.36779424       4.16543136
         7    2        0.00000000       3.86075126       9.43755536
         8    2        0.00000000       1.62494574       1.10669264
         9    3        0.00000000       2.74284850       5.27212400
        10    3        0.00000000       0.00000000       0.00000000
        11    3        0.00000000       2.28700354       8.33711546
        12    3        0.00000000       3.19869346       2.20713254
        13    3        0.00000000       5.02985204       7.47925654
        14    3        0.00000000       0.45584496       3.06499146
        15    3        1.96268700       1.17515698       6.37018090
        16    3        1.96268700       4.31054002       4.17406710
        17    3        1.96268700       1.56769152       1.09805690
        18    3        1.96268700       3.91800548       9.44619110
