 # Nd2 Cu1 O4
 
           7  atoms
           3  atom types
 
      0.00000000       7.01343203  xlo xhi
      0.00000000       4.92140626  ylo yhi
      0.00000000       2.65927870  zlo zhi
