 # Nd2 Cu1 O4
 
           7  atoms
           3  atom types
 
      0.00000000       6.78296857  xlo xhi
      0.00000000       5.11497041  ylo yhi
      0.00000000       2.80993911  zlo zhi
