 # Nd4 Cu2 O8
 
          14  atoms
           3  atom types
 
      0.00000000       6.91514864  xlo xhi
      0.00000000       4.85661353  ylo yhi
      0.00000000       5.59673400  zlo zhi
