 # Sr2 Cu4 B4 O12
 
          22  atoms
           4  atom types
 
      0.00000000       7.29114812  xlo xhi
      0.00000000       6.05087867  ylo yhi
      0.00000000       6.43507617  zlo zhi
