 # Rb2 Co2 Cl6
 
          10  atoms
           3  atom types
 
      0.00000000       7.15989255  xlo xhi
      0.00000000       6.20064852  ylo yhi
      0.00000000       5.89353400  zlo zhi
