 # Zn2 Cr4 Se8
 
          14  atoms
           3  atom types
 
      0.00000000       7.49849548  xlo xhi
      0.00000000       6.49388758  ylo yhi
      0.00000000       6.12249592  zlo zhi
