 # Cu6 B12 O24
 
          42  atoms
           3  atom types
 
      0.00000000       8.67244037  xlo xhi
      0.00000000       5.36110764  ylo yhi
      0.00000000       8.19542982  zlo zhi
